273
Lattice="26.784164428710938 0.0 0.0 0.0 26.784164428710938 0.0 0.0 0.0 26.784164428710938" Properties=species:S:1:pos:R:3 energy=-1173.18408203125 pbc="T T T"
O       13.98401070      14.40150833      13.08646584
H       14.19911861      16.45647240      13.75578880
O       14.61582184      13.05061817      15.23066330
H       13.36346245      11.62430954      15.16616631
H       15.27303028      14.01955605      11.81878090
C       20.72141266      26.37434006      24.87503052
C       22.61529541      26.01189041      26.67045975
C       20.57174683      24.80000877      22.80974960
C       22.72036552      23.17730141      22.36793137
C       24.75276566      22.90083313      24.14181709
C       24.78451347      24.53185654      26.20653152
O       26.60488701      24.55472183       1.15430069
H        1.37880135      23.64217186       0.73818398
H       22.58449364       0.50272369       1.54774284
H       19.08585548       0.64237410      25.23748016
H       19.02235985      24.76145744      21.61563301
H       22.80502510      22.17423439      20.64166832
H       26.39663887      21.75282478      23.56488419
C       13.84855461       8.39078045       5.49500227
C       13.92576981       9.32644081       7.97710085
C       14.29687309       5.78390312       5.21067381
C       14.73776531       4.25067425       7.35468149
C       14.42915440       5.15522909       9.84503841
C       13.97987175       7.73937321      10.06658936
O       13.60466671       8.71039009      12.41967583
H       13.46059418       7.46383238      13.85477257
H       13.70703316      11.38155556       8.48103333
H       13.76130581       9.90664291       3.98271084
H       14.50200367       5.03037500       3.31803775
H       15.23485851       2.30858374       6.94147396
H       14.54000568       3.96685624      11.58107281
C       12.45816994      24.53355789      23.75971413
C       10.97717285      26.35525322      25.09404945
C       13.99572659      22.77271080      24.88977051
C       13.89345455      22.49170685       0.77389908
C       12.60745811      24.41015816       2.20706749
C       11.00071907      26.12905121       0.87802321
O        9.49993610       1.01030540       2.23125458
H        8.52890015       2.05248833       1.09761047
H        9.58234692       0.67071921      23.90049934
H       12.59770775      24.63087654      21.72750282
H       15.25993347      21.54608917      23.88746071
H       15.14717484      21.10162544       1.54093945
H       12.54575825      24.30112076       4.25590706
C        3.36354232      25.63753510      22.70581436
C        5.28921080      23.98138046      23.33471489
C        3.44680357       0.15369231      20.39732552
C        5.14389086      26.03248787      18.60200882
C        7.02156067      24.16543770      19.22644997
C        7.02373362      23.21396065      21.64983559
O        8.66692638      21.36372948      22.37246704
H        9.87769222      20.85803986      21.18099403
H        5.23586369      23.14328575      25.17133904
H        1.94590747      26.25982285      23.90843582
H        2.12945676       1.46610641      19.63009644
H        5.40953016      26.78252029      16.53534889
H        8.40300751      23.60362434      17.70556068
C        0.29211009      11.63867092       5.46217775
C        2.71154904      10.94839287       6.23658752
C       25.35223198      12.79760265       7.22618008
C       26.46505356      13.65606785       9.49377537
C        2.25831699      13.45868492      10.05107498
C        3.66266704      11.89225388       8.48129845
O        5.99808502      11.20150185       9.22195816
H        6.56800747       9.94850063       7.89844990
H        3.92566013       9.74119759       5.04660797
H       26.72329903      10.85647583       3.60983038
H       23.55037117      13.48653984       6.41951275
H       25.29407310      14.59885120      10.85371685
H        2.97920966      14.18908405      11.76751328
C        4.47180986      17.37270546      24.89336205
C        3.87926745      18.40440178       0.44319731
C        2.75442672      16.02803421      23.64500809
C        0.20077962      15.96571064      24.38181305
C       26.18136597      17.14427567      26.69767189
C        1.35174739      18.13655090       1.41659546
O        0.72144830      18.98626709       3.72055054
H        2.12688661      18.84542656       4.86723709
H        5.20800924      19.28446579       1.68663788
H        6.44001627      17.71644592      24.23365784
H        3.25157595      15.18094444      21.83408356
H       25.56575012      14.97530460      23.21377182
H       24.26287270      16.93615913       0.67563438
C        6.76176119      23.21018219       4.90633345
C        4.39932013      24.31812859       5.32934856
C        7.01453066      20.84443474       5.86714554
C        5.21755219      19.77787209       7.63823462
C        3.13390279      21.22011185       8.49380875
C        2.56040883      23.35474586       7.06158495
O        0.33968583      24.77789879       7.22130489
H        0.40166315      25.93365669       5.76243639
H        3.74664640      26.00565338       4.36179018
H        8.11514568      23.95964622       3.62175441
H        8.75391006      19.70776367       5.45153856
H        5.85421991      17.87675285       8.51640987
H        1.89630222      20.48444176       9.90256119
C       21.04304504      19.53202057       8.60072899
C       19.22115898      21.28662872       9.51960850
C       21.81764221      19.53731155       6.13732004
C       20.85180473      21.33387375       4.49968338
C       19.10229492      23.12779045       5.19141769
C       18.35940552      23.09056282       7.85366392
O       16.73139000      25.11615944       8.65339565
H       16.11494255      24.93455696      10.43189240
H       18.59029198      21.08272743      11.45236301
H       21.61449623      18.01352882       9.99060345
H       23.15462494      18.18481445       5.33579254
H       21.44555664      21.72504616       2.53022981
H       18.62748337      24.70382118       4.12190819
C        7.51725483      12.18090916      23.07053185
C        9.47850704      13.92350197      23.20961380
C        6.37620020      11.52245331      25.42116165
C        6.87206411      12.90592194       0.82945830
C        8.81723499      14.62285137       0.93358040
C       10.02471352      15.36218834      25.49221420
O       11.95571136      17.04043579      25.73750305
H       12.58145618      17.47690392      24.10950279
H       10.28024197      14.59631920      21.48788643
H        7.34871006      11.16920662      21.37771416
H        5.13175917       9.95054150      25.44270515
H        5.69098568      12.51682758       2.28832436
H        9.07159233      15.52177525       2.67005157
C       22.33486176       2.88234234       8.43067265
C       20.85936165       3.33990192       6.33834887
C       24.75503349       3.94406629       8.58818150
C       25.46651459       5.66796875       6.62772274
C       24.01501656       5.94878197       4.40325069
C       21.74337578       4.62374401       4.16892481
O       20.14221191       4.94131231       2.03211689
H       21.18949890       5.95962906       0.76401812
H       18.95300674       2.61783767       6.17895031
H       21.70652771       1.81895959      10.08013821
H       25.91173363       3.42977715      10.21315670
H        0.46757320       6.78882170       6.76310301
H       24.54262733       7.30530262       2.98293257
C       20.95177078      12.30984592      16.56919289
C       20.31757927      13.86979580      14.52450943
C       21.16889954       9.73777676      16.27122116
C       20.35367393       8.60023785      14.07441425
C       19.39312363       9.92865849      12.06420040
C       19.40691948      12.61250401      12.35623837
O       18.42819214      14.11273861      10.35288239
H       18.82669830      13.27857590       8.71545410
H       19.84457970      15.81173515      14.73020649
H       21.67629242      13.16921806      18.29982376
H       21.92970467       8.58791637      17.81968307
H       20.48425293       6.55725479      13.85556507
H       18.67160988       8.97139835      10.35072803
C       11.24233913      14.35076809       6.81962442
C       10.11313343      15.64613819       8.94061565
C       13.18896484      15.54091740       5.41604948
C       13.91467667      17.97110558       6.15428972
C       12.99024105      19.14216805       8.32985592
C       11.16846943      17.88187218       9.89655209
O       10.45948315      19.05070496      12.02765274
H       11.35615730      20.63391876      12.34620380
H        8.66875839      14.81464005      10.13955212
H       10.52350616      12.44290066       6.42901802
H       13.90774155      14.65083790       3.69078636
H       15.29746437      18.92749596       5.16258049
H       13.98654270      20.84046555       9.01652527
C        7.95708847       5.29956675      25.64049339
C        8.65577698       6.47055387       1.03587222
C        5.78169250       3.85865045      25.78305817
C        4.51593494       3.20355821       1.15908623
C        5.39735985       4.34570837       3.45851994
C        7.45644331       6.08573008       3.44763494
O        7.88979483       7.54155636       5.67172909
H        9.50339413       8.50161266       5.39949560
H        9.83953953       8.27512932       0.98874247
H        8.61444855       5.57079935      23.71243286
H        5.38207197       3.23872590      23.82693100
H        2.87004018       1.96144128       1.16607249
H        4.26053858       4.25263977       5.29134655
C       23.54012680      24.58250237      15.01472378
C       20.88128471      24.73197746      15.25301933
C       25.04605103      26.70145035      15.61786747
C       23.85079956       2.19402885      16.23338890
C       21.33840752       2.42910957      16.34673500
C       19.86914635       0.18165970      16.06569481
O       17.32300568       0.41806409      16.41189384
H       16.49145126      25.50733376      16.36007690
H       19.62669373      23.09169579      15.03392315
H       24.26086998      22.83356094      14.41923332
H        0.33567241      26.64532471      15.48738194
H       25.13259888       3.80331802      16.58423615
H       20.59007645       4.34529114      16.72732544
C        8.83479023       2.59465027      12.81236172
C       10.45273685       0.62026411      13.43844700
C        7.76057577       2.97259521      10.25582600
C        8.67529678       1.60443497       8.27274799
C       10.47140694      26.42271614       8.76420879
C       11.22504807      25.86014557      11.31700230
O       12.67520523      23.85287857      11.71960831
H       12.91969776      23.71492767      13.56583309
H       11.72452164       0.94680792      15.23705006
H        8.16151905       4.00797653      14.23636436
H        6.48245955       4.53861237      10.10935402
H        8.14851761       2.06873894       6.36242390
H       10.90944481      25.11067963       7.25131321
C        1.24083567       8.14014626      15.05677032
C        3.79982352       8.79334927      14.17971039
C        0.95075899       7.04361343      17.42359543
C        3.03469229       6.53181934      18.92825317
C        5.49107170       6.88355398      18.01560974
C        5.92085171       8.06425476      15.70012760
O        8.24670696       8.46884537      14.72412109
H        8.21543312       9.51658535      13.19236660
H        3.91528583       9.88889790      12.62952995
H       26.45446014       8.63937473      13.80594158
H       25.79544830       6.80830479      18.02908134
H        2.72524953       5.87432718      20.79738045
H        6.95846272       6.25089264      19.24874878
C        2.31266546      18.72436905      15.49921131
C        4.65787220      17.67857552      15.38437271
C        0.25388092      17.47622490      16.50343132
C        0.70111102      14.92887402      17.28077126
C        3.13862705      14.02940178      17.31489944
C        5.25428915      15.29806995      16.53963852
O        7.59649038      14.26971817      16.31411934
H        8.67214203      15.73933983      15.83135033
H        6.24127388      18.62143707      14.60421848
H        2.28715420      20.69722557      14.95325089
H       25.03758812      18.17899513      16.44768524
H       25.94225883      13.99570751      18.09637642
H        3.29658937      11.96888256      17.79222488
C       25.29511642       8.30107498      25.16208076
C       26.27550697       6.00719357      24.42168617
C       22.93484879       9.21067619      24.25387955
C       21.47352409       7.49306583      22.83034706
C       22.38777351       5.13053083      22.02437973
C       24.79755211       4.47647762      22.77119827
O       25.64244843       2.17622733      22.21580696
H       24.94759750       1.44531357      20.67039108
H        1.28488159       5.50902414      25.10652161
H       26.33049774       9.69348240      26.42800713
H       21.83181572      10.93157387      24.75106430
H       19.57264900       8.16870022      21.95729446
H       21.57632446       3.54240489      20.92682648
C       18.84053040      15.80536652       1.05148709
C       19.19130135      14.22625446       3.05666971
C       17.89113235      14.66438675      25.64908028
C       17.14905548      12.11354065      25.60149384
C       17.41786957      10.66081333       0.97103757
C       18.58332062      11.61782837       3.12330151
O       19.02519608      10.28366280       5.29675102
H       19.35079384       8.46529198       5.10834503
H       19.97251511      14.82822609       4.81451178
H       19.86555481      17.66852379       0.82639045
H       17.75664139      15.55412769      23.80079651
H       16.44471741      11.34525394      23.84943962
H       16.67152214       8.76436043       0.76563764
C       12.36213398       9.14073753      20.71763229
C       12.53030109       7.91995525      18.33665276
C       13.38825607       8.09033298      22.89384079
C       14.58086109       5.73955154      22.79425240
C       15.02056313       4.51395082      20.46667671
C       13.94803047       5.61981869      18.26711273
O       14.34757519       4.55352163      16.07786560
H       15.38803864       3.13575459      15.93120384
H       11.79410172       8.69691658      16.56703949
H       11.77254009      11.08054161      20.88600731
H       12.77148628       9.05690861      24.78054428
H       15.30621433       4.97651815      24.45078659
H       15.97649956       2.60680151      20.48935318
S       14.67117119      19.83475494      17.67483330
O       14.18212891      18.46402168      15.21798229
O       13.29008484      18.92957497      19.89994812
C       18.17933464      19.38669968      18.70889282
O       14.57031727      22.62871361      17.07577133
H       19.61554527      20.77753830      17.89872932
H       19.07602882      17.64788628      17.93334770
H       18.31953239      19.52729416      20.69476700
277
Lattice="28.210018157958984 0.0 0.0 0.0 28.210018157958984 0.0 0.0 0.0 28.210018157958984" Properties=species:S:1:pos:R:3 energy=-1206.2684326171875 pbc="T T T"
O       14.01058006      14.83467102      20.03034019
H       12.62983322      14.05032158      10.67736816
O       15.75396633      16.99451447      19.18638802
H       16.74788666      17.60466957      20.79983521
H       15.09858990      13.35913467      19.64899445
C       27.12871742       6.09827852      21.74469948
C        0.47564501       4.06126690      21.82142258
C       24.41847229       5.86761808      21.68819618
C       23.37647820       3.46974492      21.58558464
C       25.04605103       1.34942687      21.44498825
C       27.69544601       1.61890376      21.78665161
O        0.96508402      27.67396736      21.86110687
H        2.76977348      27.61540985      22.19086456
H        2.70438766       4.25592756      22.20012283
H       28.01121902       7.97143126      21.70123672
H       23.36495018       7.69864893      21.38414001
H       21.22086716       3.09179950      21.42439079
H       24.26067924      27.57485390      21.57538033
C       23.21263885      21.84598923      22.40629387
C       22.23224831      23.85892487      23.76103783
C       24.52221870      19.81396675      23.60419083
C       25.45838928      20.35404968      26.07973099
C       24.40165329      22.31501961      27.52631760
C       22.94486427      24.07756615      26.27890968
O       21.82633591      26.10127258      27.81544495
H       20.74220085      27.22736168      26.82636261
H       21.11560822      25.31873894      22.73529434
H       22.83469391      21.57991409      20.39373398
H       25.54550552      18.24277306      22.57107735
H       26.63946915      18.95848846      27.02459526
H       25.11200333      22.90196800       1.19752121
C       27.89745903      19.68130684      14.36072731
C        1.97363091      20.80947495      14.99293518
C       25.51527023      20.61029625      14.90139675
C       25.46216774      22.82146645      16.40000534
C       27.72152519      23.98402596      17.27427101
C        1.84135056      23.04785347      16.49269676
O        4.01189041      23.93848228      17.72648048
H        3.50355530      24.87654114      19.28030777
H        3.57007217      19.51009750      14.98690701
H       28.05544090      17.82032394      13.46106720
H       23.77747917      19.64899445      14.38648415
H       23.71265984      23.42901230      17.16570473
H       27.49003410      25.67022705      18.48254204
C        5.63998175      15.99621010       9.53644657
C        8.13721657      15.25606060      10.00560856
C        5.09020376      18.68181229       9.68777561
C        6.86881399      20.31719971      10.57726860
C        9.42922211      19.57113647      10.97639847
C        9.96603680      17.07015991      10.62611771
O       12.51195145      16.02414131      10.85623074
H       13.07871819      16.57777405      12.44218254
H        8.89798260      13.43740749       9.69646740
H        4.21881342      14.62838840       8.76385021
H        3.18677735      19.02500725       9.62375069
H        6.53983164      22.45712471      10.75291920
H       10.64323997      20.91586685      12.05348492
C       25.82140541       0.11931069       6.52864408
C       26.05913353       2.62923265       7.24827099
C       23.77766609      27.54592896       5.03778267
C       21.91420937       1.02939045       4.26212597
C       22.29026222       3.59064960       4.84590006
C       24.16468239       4.32614994       6.54729605
O       24.26389313       6.77030277       7.32055283
H       25.99752808       7.07838440       7.95266676
H       27.65406227       3.34339786       8.37415028
H       27.51271057      27.07364082       6.80169058
H       23.75744820      25.53756714       4.60322142
H       20.61256409       0.24786592       2.89899087
H       20.76582146       4.90837431       4.24288845
C        5.73477030      15.01587677      15.71556759
C        3.82331276      13.43077469      16.57662010
C        6.89249229      16.77294350      17.22642136
C        6.35632038      16.90476990      19.79941559
C        4.41313410      15.36808300      20.80304909
C        3.15002203      13.84466267      19.05599594
O        1.29794323      12.21452808      20.10120583
H        0.55139178      12.92353439      21.62129974
H        3.37061000      11.69935036      15.44174576
H        6.53219748      14.28750038      13.96093750
H        8.61594105      17.92930412      16.88610077
H        7.52519178      18.14928818      20.81552124
H        3.61064291      15.39516258      22.65932655
C        5.33498001      19.75878716       1.03310180
C        4.34005833      21.03718567      27.08599854
C        5.23117733      20.94099998       3.39714170
C        4.06935501      23.22756767       3.73733020
C        3.08185959      24.53903770       1.76062560
C        3.26818657      23.47946739      27.43861771
O        2.17426205      24.58136749      25.37215996
H        1.07104957      26.04666138      25.77212143
H        4.24114990      20.13276291      25.25280571
H        6.41809559      18.00022507       0.78128833
H        5.89855337      19.90278244       5.03991842
H        3.77720332      23.95265579       5.63676929
H        2.13947225      26.35222816       1.89804089
C        9.71081066       2.51017976      25.68326569
C        8.15807915       0.45869699      25.12900925
C       10.47167110       4.12139797      23.57678986
C        9.63915253       3.65117741      21.15699387
C        8.22333241       1.56155622      20.59461212
C        7.49198914      28.05478287      22.61264992
O        5.98408222      26.00074005      22.10696030
H        5.24758053      25.01173210      23.55846024
H        7.83108139      27.09086990      26.63304329
H       10.16396713       2.88903213      27.54294586
H       12.13727570       5.31734848      24.04317284
H        9.83354855       5.07578564      19.57000351
H        7.78030396       1.00683284      18.72622108
C       11.27040100      21.22313499      25.48881340
C       11.42505646      22.34544373      23.01931953
C       13.56995296      20.40847397      26.48885536
C       15.85296917      20.76544380      25.23048973
C       16.05420494      21.97959137      22.96451759
C       13.74588680      22.64893341      21.74224281
O       13.86781120      23.58869553      19.24893761
H       12.20156384      23.98062325      18.55569267
H        9.88899231      23.14612007      21.97278786
H        9.40775585      21.17135620      26.11733627
H       13.53518200      19.33548737       0.01001740
H       17.49712372      20.29754829      26.17421722
H       17.82822418      21.94085503      21.95748329
C       15.30315208       0.09595575      27.50288391
C       15.86814404       2.25752354       0.79028511
C       15.92354965      28.05429268      24.89865303
C       16.86512375       1.88502443      23.62100792
C       17.42620277       4.22837543      25.05701065
C       16.87132263       4.32609320      27.67428207
O       17.54816628       6.48198700       0.67406648
H       17.17706299       6.43253279       2.45626640
H       15.58113194       2.31950641       2.87880898
H       14.29953766      26.63455582      28.19641304
H       15.17004108      26.46372986      23.86024857
H       17.27910805       1.94466043      21.67685699
H       18.12383461       5.83275270      24.13860321
C       18.00323105       5.00361633      16.15126038
C       17.40993309       6.30374908      13.92609024
C       18.92919731       2.49330521      16.14300346
C       19.38121796       1.38063431      13.85265636
C       18.75724983       2.50181007      11.55918980
C       17.66349602       4.93256378      11.52984142
O       16.96197319       5.97323608       9.32681847
H       17.25444603       4.88494110       7.92764616
H       16.56465912       8.02226639      14.21982956
H       17.60136223       5.92372513      17.86137009
H       19.52276039       1.52066231      17.91613388
H       19.67620468      27.46414375      14.00700855
H       19.21926880       1.64179420       9.78016376
C       19.92054749      13.83064079      22.39627647
C       19.92905045      15.25685406      24.57494354
C       18.51215363      11.63022423      22.24850082
C       16.86005974      10.95196342      24.18131256
C       16.89583397      12.37891483      26.30819893
C       18.32954979      14.63243294      26.52324867
O       18.17504501      16.16498184       0.50096703
H       16.94135666      15.52311707       1.73873711
H       21.29041100      16.88538170      24.55491257
H       21.07139015      14.25985336      20.82629204
H       18.55886650      10.32368660      20.59687996
H       15.88923264       9.06541348      24.35138702
H       15.81787586      11.87071133      27.90879631
C        0.17423430      10.30690575      10.28980350
C        0.26418489       7.68561029      11.24466324
C       26.76154518      11.90226936      11.53324318
C       24.86161423      10.85834694      13.10126305
C       24.99502754       8.41271973      14.19403458
C       26.83732224       6.86431646      13.15385437
O       27.04122353       4.51030350      14.21699524
H       26.24546051       4.40338278      15.84310436
H        1.63272464       6.25196934      10.57955647
H        1.69225121      10.94674778       8.95046043
H       26.66233444      13.97312546      11.41094112
H       23.49080658      12.16411018      13.75325680
H       23.79902077       7.89667368      15.98855686
C        2.00670052       5.60912275      27.94179726
C        1.28010166       3.11341810      27.81127930
C        0.02513310       7.36968565      27.68101501
C       25.64452744       6.53595734      27.71975327
C       25.03697968       3.98715186      27.56218338
C       27.00853157       2.17927003      27.66705513
O       26.83921051      27.82247543      27.40652466
H       25.20252037      27.43915367      28.09740257
H        2.57531929       1.58658373       0.04988914
H        3.95312119       6.14278126      28.01709366
H        0.47980300       9.33350849      27.74873734
H       24.16865158       7.83786583      28.06064987
H       23.01913071       3.27589679      27.64513397
C        8.16155720       6.94143629      11.88017845
C       10.43854427       8.45457745      11.61975574
C        6.68267584       7.13048410      14.03854847
C        7.62372160       8.64749908      16.03984261
C        9.70321369      10.26330948      15.82309246
C       11.15318203      10.11738491      13.57628345
O       13.22777939      11.52604389      13.25561619
H       14.16294861      11.09278584      11.67680645
H       11.68470478       8.29703140      10.02635670
H        7.99660206       5.59927750      10.47163296
H        5.05792713       5.92474461      14.41118336
H        6.48487806       8.76851749      17.63972473
H       10.23369789      11.42628479      17.41579056
C       16.83693123      18.96094322       7.40619516
C       18.74207687      19.70285034       9.01994610
C       15.71804142      20.51921272       5.62363577
C       16.15985870      23.23512650       5.75357342
C       18.03344727      24.05659103       7.45287180
C       19.18279839      22.27590179       9.16420746
O       21.03869820      23.22908020      10.78419399
H       22.02570343      21.74904633      11.36632442
H       19.54184532      18.40360641      10.38797474
H       16.30219460      16.91327477       7.23406029
H       14.56799316      19.69907188       4.07910585
H       15.49766159      24.39900780       4.19730854
H       18.87624741      25.96294594       7.64728689
C        7.88231230       0.13001440      11.29273891
C        7.56039715      26.47430611      13.00396061
C       10.29337597       0.98965073      10.90989876
C       12.33932495       0.32333371      12.28501415
C       11.99673748      26.68803406      14.16844845
C        9.55473804      25.51640320      14.58484840
O        9.44165802      23.83511353      16.44305420
H        7.68260622      23.56828499      16.93542099
H        5.86204386      25.71463585      13.61177254
H        6.47242498       0.75003242      10.04757881
H       10.57785511       2.23668098       9.33709812
H       14.32098675       0.92105287      12.02553558
H       13.53395367      26.07122803      15.40827847
C        7.09648848      12.88655281       2.96365929
C        9.42837238      14.16604710       3.44950676
C        6.51989508      11.83340740       0.54103082
C        8.16382408      12.47111511      26.74359131
C       10.40382957      13.68953514      27.15876579
C       11.01568508      14.31943703       1.42882335
O       13.20343971      15.54025650       1.84078205
H       14.03308678      15.52158546       3.52188301
H        9.98387623      14.77718449       5.27630615
H        5.54390860      12.81952381       4.42479324
H        4.59895086      11.06736946       0.24717709
H        7.83134556      11.95986843      24.67490768
H       11.75453091      14.24498081      25.75545502
C        5.68420172       6.41637611       5.64767313
C        8.27641487       6.74518824       5.35331059
C        4.59331942       4.01683903       5.60638237
C        6.25913191       1.97185361       5.21305513
C        8.80245781       2.22594619       4.66484547
C        9.81909275       4.62616301       4.88343000
O       12.29210091       4.98751640       4.81509733
H       12.87181187       6.81021357       5.04352760
H        9.32886028       8.49499893       5.61176825
H        4.57141733       7.89529419       5.88642073
H        2.53266740       3.79296350       5.85773516
H        5.62133026       0.04567921       5.04940462
H        9.76763439       0.45432603       4.53641939
C       24.23479271      18.31694412       5.43711948
C       22.51627541      16.66383171       4.23888206
C       26.74264717      17.88185501       5.77318859
C       27.84397888      15.41971207       4.88626480
C       26.20256233      13.84281063       3.45341754
C       23.46453857      14.32032490       3.33417583
O       22.04573250      12.54763031       2.43479872
H       20.29754829      13.05862999       2.70865774
H       20.53565216      17.25958633       3.82641149
H       23.51612854      20.02996063       6.09304333
H       27.68599701      19.23703384       6.97804022
H        1.64878654      15.00017262       4.91051006
H       26.94881630      12.10634136       2.63240743
S       16.66452980      10.93461609       6.59812975
O       14.50292969      11.66979504       8.37256336
O       17.06409454      13.00800514       4.71815491
C       19.54543686      10.93025112       8.60619068
O       16.30566978       8.37898827       5.43258429
H       20.95517159       9.73985577       7.68122625
H       19.19432449       9.97977638      10.43383884
H       20.28677559      12.84288120       8.99600315
O       14.55313969      19.71551132      15.29780483
H       14.32767582      21.02017784      16.59583855
O       12.50216293      18.02624702      15.49184227