135
orig_idx=1775 energy=-0.18189600 iprint=2 task=SinglePoint calculate_stress=T calculate_hirshfeld=T backup_interval=600 write_bib=F opt_strategy=speed xc_functional=PBE sedc_apply=F cut_off_energy="650.0000000 eV" spin_polarized=F nextra_bands=24 elec_energy_tol="0.0000010 ev" elec_force_tol="0.0000100 ev/ang" max_scf_cycles=200 fix_occupancy=F smearing_width="0.1000000 eV" mixing_scheme=Pulay mix_history_length=20 mix_charge_amp=0.15000000 popn_calculate=F pdos_calculate_weights=F kpoints_mp_grid="1       1       1" castep_file_name=5.castep castep_run_time=227.67000000 virial="12.63389139       1.79543190       3.38440212       1.79543190      11.52413539       1.75580586       3.38440212       1.75580586      11.41524885" cutoff=-1.00000000 nneightol=1.20000000 pbc="T T T" Lattice="11.82151960       0.00000000       0.00000000       0.00000000      11.82156160       0.00000000       0.00000000       0.00000000      11.82149860" Properties=species:S:1:pos:R:3:resid:I:1:Z:I:1:constraint_force:R:3:frac_pos:R:3:force:R:3:force_ewald:R:3:force_locpot:R:3:force_nlpot:R:3:hirshfeld_charge:R:1:hirshfeld_volume:R:1:hirshfeld_rel_volume:R:1
C               1.96513849     -3.82672224     -5.12019840       1       6      0.00000000      0.00000000      0.00000000      0.16623400     -0.32370700     -0.43312600     -0.02434945      0.01421832      0.00324984    -16.87864334     -8.30119225      9.15678284     17.06688523      8.44095160     -9.10942686      0.36169580      0.15084797      0.03349634     -0.15856332     29.33799032      0.75415560
H               2.42966510     -2.86403337     -4.85783206       1       1      0.00000000      0.00000000      0.00000000      0.20552900     -0.24227200     -0.41093200      0.01363375     -0.03910081     -0.00874550     15.16025375     42.16581405     14.76466362    -14.56341728    -40.55649169    -14.33272251     -0.83653829     -1.68748846     -0.46087030      0.04071285      6.91555740      0.65780064
H               2.70040154     -4.60270137     -4.89624011       1       1      0.00000000      0.00000000      0.00000000      0.22843100     -0.38934800     -0.41418100     -0.00666965      0.01679841      0.00489096     28.86074797    -40.32463041     11.12132601    -27.54681396     38.72352007    -10.75676431     -1.33428335      1.39564184     -0.41617199      0.03923212      6.85760601      0.65213594
H               1.70609353     -3.83485548      5.64857210       1       1      0.00000000      0.00000000      0.00000000      0.14432100     -0.32439500      0.47782200     -0.01449350      0.02329865      0.02312156    -14.07625269     -1.06444579    -49.78089946     13.62634495      1.06285788     47.41929805      0.49273122      0.01125828      1.96631193      0.03934900      6.77784990      0.64535945
H               1.06096956     -3.99684633     -4.55498891       1       1      0.00000000      0.00000000      0.00000000      0.08974900     -0.33809800     -0.38531400     -0.01455893     -0.01503216      0.00282697    -47.99548157     -9.61875602     32.76731337     45.89735613      9.26807620    -31.28470064      1.71858206      0.33452135     -1.06261464      0.03986395      6.58255623      0.62589636
C              -0.90205287     -0.79193823     -4.77528254       2       6      0.00000000      0.00000000      0.00000000     -0.07630600     -0.06699100     -0.40394900      0.06527581     -0.00674864      0.00876877     -0.40584261      6.34219813     23.78152479      0.39424201     -5.86553593    -23.69960446      0.67433431     -0.73718183     -1.49996610     -0.15908665     28.98806389      0.74514898
H               0.00478772     -1.38486048     -4.90234000       2       1      0.00000000      0.00000000      0.00000000      0.00040500     -0.11714700     -0.41469700     -0.01731654     -0.01506271      0.00334357     39.98677149    -27.66357816     -0.31657759    -38.03484195     26.51901199      0.11618395     -1.64116562      1.08343556      0.23549469      0.03761989      6.73410136      0.64031431
H              -0.74937795      0.16816171     -5.29508565       2       1      0.00000000      0.00000000      0.00000000     -0.06339100      0.01422500     -0.44792000     -0.01158154      0.00914106     -0.00373977      6.69527479     43.82925273    -17.08688804     -6.55782410    -42.18626229     16.65169389     -0.27636523     -1.66227858      0.93490546      0.04217140      6.76999632      0.64346797
H              -1.12628346     -0.75464121     -3.73678753       2       1      0.00000000      0.00000000      0.00000000     -0.09527400     -0.06383600     -0.31610100     -0.00825148     -0.00225505      0.01218355    -11.27296009      2.84007251     59.36362378     10.50825614     -2.35241269    -56.25423097      0.44615891     -0.04118938     -2.10490258      0.04489193      6.39433231      0.60751987
H              -1.66991968     -1.34197185     -5.30819569       2       1      0.00000000      0.00000000      0.00000000     -0.14126100     -0.11351900     -0.44902900      0.05339609     -0.01935232     -0.00231368    -35.08484443    -28.16105957    -22.11687661     33.24688703     26.98814986     21.01568594      1.40304613      1.03340223      0.99785392      0.03781226      6.73030898      0.63971055
C              -5.17978796      0.40036083      3.55069350       3       6      0.00000000      0.00000000      0.00000000     -0.43816600      0.03386700      0.30035900     -0.00118516     -0.00123223     -0.01535591      8.96023631      9.54479768     -1.38773079     -8.82937700     -9.32766652      1.47812583     -0.46995373     -0.60237635      0.97684398     -0.15204644     29.85994323      0.76756118
H              -5.11290180      0.70547533      2.50895940       3       1      0.00000000      0.00000000      0.00000000     -0.43250800      0.05967700      0.21223700     -0.02497461      0.00209744      0.01588044      5.56139461     17.67475285    -48.67100758     -5.24673459    -17.08826455     46.57002175     -0.10415653     -0.57207859      1.93164995      0.03851643      6.96658583      0.66292814
H              -4.22728084      0.01223532      3.97276828       3       1      0.00000000      0.00000000      0.00000000     -0.35759200      0.00103500      0.33606300     -0.03827652      0.00288530     -0.00152854     45.12214790    -19.12479775     17.57714673    -43.75297883     18.93517808    -17.24003133     -1.59175517      0.68162446     -0.73888638      0.04204312      6.87344570      0.65403588
H              -5.87658379     -0.46157287      3.63825534       3       1      0.00000000      0.00000000      0.00000000     -0.49710900     -0.03904500      0.30776600      0.02674978      0.00968903     -0.03651798    -27.33242138    -37.84757157      2.46087618     26.22096393     36.89125995     -2.44799270      1.15079863      1.46362657     -0.15218611      0.03656789      7.07440898      0.67226563
H              -5.55548767      1.25367661      4.17326090       3       1      0.00000000      0.00000000      0.00000000     -0.46994700      0.10605000      0.35302300      0.01695874     -0.00139749      0.00285872    -16.24321123     41.42607573     27.94240403     15.92041357    -40.64467008    -27.31544632      0.61351017     -1.39754564     -1.01877289      0.04191006      6.90330477      0.65608761
C               0.18257155     -3.00995873     -0.14302831       4       6      0.00000000      0.00000000      0.00000000      0.01544400     -0.25461600     -0.01209900     -0.01867307      0.00265345     -0.02223628     -7.59984918    -11.43938523    -26.18198147      7.69767870     11.03778232     25.56803825     -0.16569452     -0.33477706     -0.04366122     -0.15573425     29.42313607      0.75633209
H               1.09995693     -2.94717441     -0.78547947       4       1      0.00000000      0.00000000      0.00000000      0.09304700     -0.24930500     -0.06644500     -0.00514141     -0.02630147      0.00754029     34.76666315      0.18596561    -32.30025024    -34.08084457     -0.31437356     31.61710614     -1.50279506     -0.10810076      1.03646100      0.04327824      6.80914344      0.64739427
H               0.39842068     -2.57220630      0.80401558       4       1      0.00000000      0.00000000      0.00000000      0.03370300     -0.21758600      0.06801300      0.00342974     -0.01441407     -0.01053018      9.26403070     18.89727085     45.31424330     -8.43002690    -17.59847515    -42.39261050     -0.41771718     -0.87126701     -1.90104166      0.03348381      6.90033357      0.65655878
H              -0.15532295     -4.06013897      0.06077432       4       1      0.00000000      0.00000000      0.00000000     -0.01313900     -0.34345200      0.00514100      0.01255403      0.02981503      0.00442984    -15.74141176    -44.11316713      4.25892371     15.56547501     43.09225026     -4.34439152      0.55323773      1.70496389     -0.35005778      0.04106905      6.82775218      0.64943876
H              -0.65140119     -2.42405849     -0.54941597       4       1      0.00000000      0.00000000      0.00000000     -0.05510300     -0.20505400     -0.04647600      0.01266840     -0.00543933     -0.01913526    -39.64789099     25.88438693    -26.44749528     38.25181228    -24.98567839     25.42505217      1.49177471     -1.05077974      0.70141111      0.03912125      6.71233812      0.63850429
C              -2.95366578      3.61188900     -2.57622373       5       6      0.00000000      0.00000000      0.00000000     -0.24985500      0.30553400     -0.21792700      0.04474534     -0.06616515     -0.01175344     12.45993165    -21.66200541     -8.57439344    -12.43777001     22.07501086      8.55863137      0.60237037      0.49638060     -0.10494641     -0.15336493     29.77111447      0.76525307
H              -2.20725503      3.31698833     -3.34555503       5       1      0.00000000      0.00000000      0.00000000     -0.18671500      0.28058800     -0.28300600     -0.00762907     -0.03333432      0.03367098     36.84021847    -20.65543933    -31.38545681    -35.88156353     20.37074074     30.43155925     -1.26438778      0.50140044      1.29679844      0.03799972      6.77839266      0.64434880
H              -2.85087767      2.93525828     -1.73080925       5       1      0.00000000      0.00000000      0.00000000     -0.24116000      0.24829700     -0.14641200     -0.01168542      0.00031254     -0.01126170      6.92213777    -38.54001009     35.43064399     -6.94041937     36.99383894    -33.73042898     -0.22100096      1.23829020     -1.56562445      0.03581733      6.90908184      0.65685075
H              -3.96143850      3.59011369     -3.02240255       5       1      0.00000000      0.00000000      0.00000000     -0.33510400      0.30369200     -0.25567000      0.00178480      0.00139461     -0.01136215    -44.61109342     -8.16584866    -22.47948943     43.04549986      8.10893814     21.92544083      1.76628784      0.02806038      0.78651816      0.04032975      6.88186669      0.65480921
H              -2.71750728      4.64706769     -2.17930509       5       1      0.00000000      0.00000000      0.00000000     -0.22987800      0.39310100     -0.18435100     -0.01042273     -0.05442607     -0.02836062     16.32752030     40.87047281     14.51017618    -16.21739607    -40.19258695    -14.48749150     -0.37393776     -1.61915882     -0.64132649      0.04261193      7.10927168      0.67542265
C              -4.87232205      4.55152583      4.13705165       6       6      0.00000000      0.00000000      0.00000000     -0.41215700      0.38501900      0.34996000     -0.02302123     -0.03476341     -0.09481096    -15.35915900      7.32914314    -17.56617313     14.83507667     -7.20794790     17.60532171     -1.77236230      0.60204935      0.23950951     -0.16167188     29.02439027      0.74607186
H              -4.11488183      4.46427088      4.85102288       6       1      0.00000000      0.00000000      0.00000000     -0.34808400      0.37763800      0.41035600     -0.00573817     -0.00441165     -0.02671027     38.11424342     -3.85280938     35.64383875    -35.02109391      3.54423874    -32.90828904     -1.62623289      0.19354921     -1.54675349      0.03775053      6.83142909      0.65019928
H              -4.94708134      5.57867767      3.78020789       6       1      0.00000000      0.00000000      0.00000000     -0.41848100      0.47190700      0.31977400     -0.00287332     -0.00323038     -0.00864477     -5.13145716     49.35277950    -23.80291062      4.96275428    -47.25744434     23.18624743      0.13996456     -1.86454428      0.66121220      0.04139767      6.61585198      0.62871626
H               5.98405322      4.26361169      4.62971260       6       1      0.00000000      0.00000000      0.00000000      0.50620000      0.36066400      0.39163500      0.02560661      0.00437308     -0.06612215    -46.00501714    -13.47990262     15.38846738     45.02561665     13.20790844    -15.07816695      1.57088967      0.46388044     -0.81590699      0.04101205      6.76037314      0.64229642
H              -4.68722070      3.92985354      3.30985411       6       1      0.00000000      0.00000000      0.00000000     -0.39649900      0.33243100      0.27998600      0.03710155      0.00287654      0.00268508      6.85551298    -29.29723889    -47.82017098     -6.16938327     26.93037023     44.87206948     -0.38867270      1.30111476      1.74777929      0.03991007      6.59281793      0.62720824
C               4.39832640     -2.23758518      1.21327587       7       6      0.00000000      0.00000000      0.00000000      0.37206100     -0.18928000      0.10263300      0.03008151     -0.00932386     -0.00565367      4.22520965    -22.29883680      7.47791520     -3.94281494     22.68046557     -7.18358961     -0.70495934      0.20625496     -0.90812895     -0.15672394     29.57870865      0.76032591
H               4.02331234     -3.20804081      0.91209955       7       1      0.00000000      0.00000000      0.00000000      0.34033800     -0.27137200      0.07715600     -0.01319364     -0.01317460     -0.01253802    -17.35397195    -53.65349400    -10.83391352     16.40977119     51.26078289     10.58925409      0.69552651      1.79520058      0.60446477      0.03627877      6.71951888      0.63887642
H               3.72227734     -1.51657632      0.69277528       7       1      0.00000000      0.00000000      0.00000000      0.31487300     -0.12828900      0.05860300     -0.00008161     -0.02462307      0.02035576    -28.42533000     26.44134433    -22.36439746     27.83046518    -25.41644631     21.88924855      1.12872743     -1.16813316      0.86826914      0.03883447      7.05628144      0.67046599
H               5.40504701     -2.18560577      0.78747731       7       1      0.00000000      0.00000000      0.00000000      0.45722100     -0.18488300      0.06661400     -0.03607903     -0.00910606      0.00852251     46.70006033     -3.30982267    -19.28167072    -44.80072149      3.69825331     18.67613103     -1.81640456     -0.07127732      0.78571838      0.03899275      6.95198320      0.66146582
H               4.38227278     -2.05942242      2.30079463       7       1      0.00000000      0.00000000      0.00000000      0.37070300     -0.17420900      0.19462800     -0.01077789      0.01126135     -0.01766583      0.00287826      0.59857021     47.55422373     -0.01256411     -0.47428314    -45.97965766      0.03368162     -0.33324245     -1.90116861      0.04111537      6.94733978      0.66000265
C               1.49053994      3.06738787     -5.14437337       8       6      0.00000000      0.00000000      0.00000000      0.12608700      0.25947400     -0.43517100      0.04388485     -0.05784310      0.02140116      5.91864993      1.97067636     24.34719509     -5.89521792     -1.88110047    -24.01268399      0.08823607      0.57121165     -0.28510044     -0.16002541     29.16317127      0.74964100
H               0.48618364      2.74281508     -4.90572095       8       1      0.00000000      0.00000000      0.00000000      0.04112700      0.23201800     -0.41498300      0.00749644     -0.00426992     -0.00289041    -46.47111912    -17.91887123     19.27837910     44.21296713     17.22514997    -18.58929608      1.88708257      0.61363352     -0.44269196      0.03976208      6.74534238      0.64141416
H               2.14922319      2.22144875     -5.17077077       8       1      0.00000000      0.00000000      0.00000000      0.18180600      0.18791500     -0.43740400     -0.00582752      0.02270984      0.00773471     32.21063279    -38.20519818      4.73907112    -30.42849140     35.92447268     -4.65958124     -1.28605977      1.65530620      0.06501715      0.03793804      6.76229426      0.64297306
H               1.85896942      3.81983027     -4.42671383       8       1      0.00000000      0.00000000      0.00000000      0.15725300      0.32312400     -0.37446300     -0.02499279      0.00984133      0.01543534     16.14263424     33.64114288     39.21018837    -15.67849502    -32.54816665    -38.04745365     -0.64709358     -1.31210814     -1.24618278      0.04317463      6.58610330      0.62670133
H               1.48298599      3.50361532      5.68228702       8       1      0.00000000      0.00000000      0.00000000      0.12544800      0.29637500      0.48067400      0.00864508     -0.00221670     -0.00169605      3.66758734     20.34201844    -45.93858832     -3.70130230    -19.30979781     43.78435722      0.00879952     -0.79984554      1.83703278      0.03802286      6.80353840      0.64667328
C               5.69046578     -3.62533012      5.08890690       9       6      0.00000000      0.00000000      0.00000000      0.48136500     -0.30667100      0.43047900      0.00953092      0.00324526      0.00928730      2.85480042     -7.90281167    -17.03246151     -2.95950452      8.09472023     17.15123077     -0.30046218     -0.23738504     -0.39232071     -0.15699897     29.41995331      0.75623741
H               4.97110267     -4.29873355      5.56890702       9       1      0.00000000      0.00000000      0.00000000      0.42051300     -0.36363500      0.47108300      0.01168824      0.00991481     -0.01574497    -34.13378204    -33.69438463     16.07268899     32.71883410     32.59349887    -15.24435829      1.27874023      1.21257121     -0.85724968      0.03977685      6.88852583      0.65492753
H               5.39232706     -3.45518238      4.03812935       9       1      0.00000000      0.00000000      0.00000000      0.45614500     -0.29227800      0.34159200      0.00490098     -0.02514370     -0.00962074    -12.96792442      1.36933809    -51.15563244     12.43300109     -1.01419871     49.66779784      0.50507955     -0.27408848      1.82300463      0.03899580      6.73033933      0.64020798
H              -5.18308616     -4.14706292      5.07480385       9       1      0.00000000      0.00000000      0.00000000     -0.43844500     -0.35080500      0.42928600      0.00010981      0.01920615      0.00688167     47.79561669    -24.64304386     -3.97743359    -45.47396982     23.62479867      4.04089748     -1.77170535      0.99760489      0.03423125      0.03834225      6.77654418      0.64366637
H               5.75455024     -2.68215865      5.64904496       9       1      0.00000000      0.00000000      0.00000000      0.48678600     -0.22688700      0.47786200      0.01228103     -0.03058277      0.00431855      5.77042121     38.66802027     23.25050069     -5.59918691    -37.15427987    -22.38191060     -0.11184262     -1.66341802     -1.00418540      0.04025893      6.98729720      0.66467045
C              -1.85645144     -3.53542714      3.73653928      10       6      0.00000000      0.00000000      0.00000000     -0.15704000     -0.29906600      0.31608000     -0.02258122     -0.00568630     -0.00944776     -5.88395632     -4.81863204     -1.19835091      5.92044142      4.25474226      1.09548430     -0.20918372      0.39046714     -0.42495995     -0.16145451     29.00270644      0.74552322
H              -1.26732601     -2.71183077      3.38930640      10       1      0.00000000      0.00000000      0.00000000     -0.10720500     -0.22939700      0.28670700      0.00715116      0.00622752      0.00176668     28.90136081     41.14002237    -16.58562915    -26.89368264    -39.02921204     15.55257555     -1.12426536     -1.63096332      0.67679295      0.03924011      6.66342304      0.63335993
H              -1.40019989     -4.50205259      3.52270019      10       1      0.00000000      0.00000000      0.00000000     -0.11844500     -0.38083400      0.29799100      0.00674798      0.01385703     -0.01086057     18.43815543    -44.21308832    -11.98026609    -17.47959906     42.41726725     11.45218632     -0.83408237      1.77391530      0.38499420      0.04325651      6.79600377      0.64612979
H              -2.79794090     -3.42513197      3.20817740      10       1      0.00000000      0.00000000      0.00000000     -0.23668200     -0.28973600      0.27138500     -0.00116358      0.00303777      0.01052118    -46.88745780      2.24612831    -25.16292568     44.66218177     -2.27100930     24.23979012      1.72847139     -0.22500928      0.99333466      0.03895544      6.66316175      0.63359643
H              -1.96564681     -3.40949205      4.79126520      10       1      0.00000000      0.00000000      0.00000000     -0.16627700     -0.28841300      0.40530100      0.00438723      0.00982045      0.00937616     -6.60372364      7.51091852     54.17807334      6.06597946     -7.25915474    -51.13531804      0.19350663     -0.25883341     -2.08474829      0.03947798      6.64605219      0.63243906
C               4.75303110     -3.14072884     -2.64055632      11       6      0.00000000      0.00000000      0.00000000      0.40206600     -0.26567800     -0.22336900     -0.04233185     -0.01602169      0.04731361    -12.61261537     -1.06419622      9.18037166     12.18322894      0.20115843     -9.07112971      0.27534114     -0.11769279     -0.82284134     -0.16125429     29.50913786      0.75855171
H               3.70184976     -2.96984817     -2.43529964      11       1      0.00000000      0.00000000      0.00000000      0.31314500     -0.25122300     -0.20600600      0.01693334      0.00511504     -0.00298436    -53.66710093      7.77864465     10.95950178     51.34565903     -7.98707012    -10.46854657      1.95137059     -0.36805019     -0.38004603      0.04366424      6.84681419      0.65069073
H               4.96256753     -3.70328149     -3.56539944      11       1      0.00000000      0.00000000      0.00000000      0.41979100     -0.31326500     -0.30160300     -0.00471013      0.04352153      0.02324959      6.81182610    -24.25616669    -39.92582540     -6.90439895     23.39036943     38.41140146     -0.39714662      0.97288944      1.60711573      0.04048694      7.09362557      0.67490407
H               5.31086497     -3.63306142     -1.86495962      11       1      0.00000000      0.00000000      0.00000000      0.44925400     -0.30732500     -0.15776000     -0.00418988      0.02350918     -0.00455048     25.96277079    -22.54192833     42.08932598    -24.85970221     21.35444228    -39.82615054     -1.10704281      0.95049457     -1.47433860      0.04101913      6.95373360      0.66088742
H               5.14153352     -2.17973046     -2.78053469      11       1      0.00000000      0.00000000      0.00000000      0.43493000     -0.18438600     -0.23521000     -0.00627943     -0.00100611     -0.00875603     21.12428692     55.04288409     -5.54597119    -19.33674475    -51.24786647      5.01359167     -0.81070539     -2.05249192      0.30749106      0.03389199      6.81153610      0.64784652
C               3.31664554      2.24688875      1.95067731      12       6      0.00000000      0.00000000      0.00000000      0.28056000      0.19006700      0.16501100     -0.02105070      0.05005158      0.02033731     -3.46078435     33.08736960      0.66133753      3.49605790    -33.14522710     -0.84205824     -0.94843253     -0.10256163      0.25598779     -0.15535968     29.43900646      0.75674496
H               3.31184600      3.01631873      1.17602632      12       1      0.00000000      0.00000000      0.00000000      0.28015400      0.25515400      0.09948200      0.00522580      0.00617045      0.01153232     -1.78991201     42.68455225    -36.12063237      1.94950571    -41.17143697     34.71959591      0.02180663     -1.39403199      1.40909201      0.04092372      6.74235982      0.64192599
H               4.22047164      2.23680496      2.53735464      12       1      0.00000000      0.00000000      0.00000000      0.35701600      0.18921400      0.21463900      0.00794246      0.00578565     -0.00843075     43.87175379      8.64565418     30.30982095    -41.50134779     -8.58094586    -29.07810089     -1.72373378      0.02824605     -1.14275777      0.04108284      6.77666527      0.64488493
H               3.15971487      1.26577007      1.48649434      12       1      0.00000000      0.00000000      0.00000000      0.26728500      0.10707300      0.12574500      0.00903043      0.06314115      0.03856213     -8.97643706    -38.16994383    -21.78503179      8.76506395     36.49095169     20.99957311      0.27971103      1.74992710      0.82110728      0.03933136      7.11195573      0.67632245
H               2.48363034      2.43370489      2.64664439      12       1      0.00000000      0.00000000      0.00000000      0.21009400      0.20587000      0.22388400     -0.01547261      0.01500681     -0.01594157    -39.09563496     15.94155372     32.36903911     37.64644559    -15.59817809    -31.31043347      1.45121767     -0.32547130     -1.22080210      0.03941697      6.73762087      0.64093766
C               2.36134854      0.12355896     -1.47152832      13       6      0.00000000      0.00000000      0.00000000      0.19975000      0.01045200     -0.12447900     -0.00617821     -0.00455616     -0.05568037    -17.13497088     15.88930652    -30.52039913     17.33987030    -15.68136440     30.09304305      1.02744319     -0.46715848     -0.25866303     -0.15599279     29.40632879      0.75590958
H               1.56282853      0.49370388     -2.11931098      13       1      0.00000000      0.00000000      0.00000000      0.13220200      0.04176300     -0.17927600     -0.01678037     -0.00930026     -0.00455479    -41.41978809     21.39652545    -34.28711912     40.07742293    -20.65970659     32.95590382      1.45927999     -0.66630348      1.16761648      0.04322004      6.51146621      0.61969463
H               2.18811599     -0.92565192     -1.23935409      13       1      0.00000000      0.00000000      0.00000000      0.18509600     -0.07830200     -0.10483900     -0.01790719      0.03743855     -0.01102648    -12.60485924    -47.34212680      4.65875943     12.17647756     45.15836362     -4.26337120      0.31617814      1.92665366     -0.42504138      0.03434746      6.95355370      0.66116023
H               3.39852138      0.20521049     -1.93528571      13       1      0.00000000      0.00000000      0.00000000      0.28748600      0.01735900     -0.16370900     -0.03225544     -0.00078560      0.01169903     38.32033839      6.71305301    -26.54377186    -37.98575902     -6.55728087     26.13600361     -1.60035226     -0.12064029      0.69186053      0.04249368      6.84701475      0.65102583
H               2.36899706      0.66566031     -0.54112910      13       1      0.00000000      0.00000000      0.00000000      0.20039700      0.05630900     -0.04577500     -0.01148884     -0.00103985     -0.04566650     -6.03268892     30.39577370     37.60127927      5.99411381    -28.92645014    -35.32692652     -0.01771153     -1.03658601     -1.78472544      0.03634680      6.93544313      0.66052399
C              -1.86278777      2.15326198      4.14322247      14       6      0.00000000      0.00000000      0.00000000     -0.15757600      0.18214700      0.35048200      0.01167472     -0.02618004     -0.00443693      6.64647553      4.07431515     -0.30593039     -6.82517188     -3.58643494      0.02009681     -0.11723068      0.11795923      0.99511602     -0.16058000     29.43148606      0.75653374
H              -1.60474764      3.20001397      3.92026901      14       1      0.00000000      0.00000000      0.00000000     -0.13574800      0.27069300      0.33162200     -0.01683873     -0.00088436      0.00905302     12.90794576     47.33362265    -12.53143640    -12.23372655    -45.94700148     11.59181070     -0.41937176     -1.85499381      0.34216673      0.04414520      6.88974561      0.65519158
H              -2.43166294      1.60958836      3.41773710      14       1      0.00000000      0.00000000      0.00000000     -0.20569800      0.13615700      0.28911200      0.02557626      0.02261687      0.04292349    -27.01766745    -26.36180273    -35.94675078     25.09455426     25.50478600     33.72220518      1.09144823      1.12013679      1.40341083      0.04069789      6.90077644      0.65626628
H              -2.43437007      2.25207841      5.06414086      14       1      0.00000000      0.00000000      0.00000000     -0.20592700      0.19050600      0.42838400      0.00268089      0.00483363     -0.01245354    -27.16326337      2.69694686     47.42208653     25.86480867     -2.86286386    -45.43825688      1.04326656     -0.21492074     -1.68102929      0.03892754      6.82946954      0.64908815
H              -1.04472679      1.48192732      4.30030655      14       1      0.00000000      0.00000000      0.00000000     -0.08837500      0.12535800      0.36377000      0.01236146     -0.00254855     -0.02184856     42.20451658    -33.53646164      8.93237657    -39.47469333     32.15659322     -8.23461651     -1.56683159      1.35825908     -0.27833402      0.03766553      6.78348249      0.64529395