135
energy=-1.53986018 iprint=2 task=SinglePoint calculate_stress=T calculate_hirshfeld=T backup_interval=0 write_bib=F opt_strategy=speed num_proc_in_smp=12 xc_functional=PBE0 sedc_apply=F cut_off_energy="700.0000000 eV" finite_basis_corr=0 spin_polarized=F nextra_bands=24 elec_method=dm elec_energy_tol="0.0000001 ev" elec_force_tol="0.0000010 ev/ang" max_scf_cycles=200 fix_occupancy=T popn_calculate=F pdos_calculate_weights=F kpoints_mp_grid="1       1       1" castep_file_name=1.castep castep_run_time=25522.53000000 cutoff=15.00000000 nneightol=1.20000000 pbc="T T T" Lattice="13.19286700       0.00000000       0.00000000       0.00000000      13.19280900       0.00000000       0.00000000       0.00000000      13.19284600" Properties=species:S:1:pos:R:3:Z:I:1:resid:I:1:hirshfeld_rel_volume:R:1:hirshfeld_avg_volume:R:1
C               1.62497862     -2.54693774     -1.33338775       6       1      0.73147633      0.73422372
H               1.03864803     -1.99599284     -2.06804457       1       1      0.58262600      0.60670447
H               1.75115520     -2.02475317     -0.39293573       1       1      0.60203984      0.60670447
H               2.62900857     -2.78679620     -1.70028080       1       1      0.61644037      0.60670447
H               1.14453398     -3.47642391     -1.15495451       1       1      0.61487566      0.60670447
C              -2.10037039     -0.19021392     -0.38810714       6       2      0.73678970      0.73422372
H              -3.14929567      0.06241518     -0.67443148       1       2      0.59735479      0.60670447
H              -1.68311959     -1.13942333     -0.81833904       1       2      0.62473517      0.60670447
H              -1.90425842     -0.32668034      0.71871986       1       2      0.58376376      0.60670447
H              -1.46360347      0.64756903     -0.72606828       1       2      0.58190765      0.60670447
C               3.70428000      0.27823634      2.60959771       6       3      0.72817867      0.73422372
H               4.43013835      0.07138629      1.82256529       1       3      0.58519895      0.60670447
H               3.98863906     -0.08584561      3.56808436       1       3      0.60040366      0.60670447
H               2.65378478     -0.06952610      2.29635997       1       3      0.59736444      0.60670447
H               3.62827590      1.33686691      2.70991611       1       3      0.58275463      0.60670447
C              -1.09917691     -3.78925179      0.71795468       6       4      0.72156484      0.73422372
H              -1.84874284     -4.16172437      1.40968198       1       4      0.56791738      0.60670447
H              -0.27067805     -4.44092379      0.44490235       1       4      0.58721497      0.60670447
H              -0.82083380     -2.83791834      0.98747133       1       4      0.60054924      0.60670447
H              -1.69355514     -3.58017216     -0.14659890       1       4      0.60494147      0.60670447
C              -6.37757703     -4.02265897      2.08606600       6       5      0.73573596      0.73422372
H               6.58810880     -4.32456321      1.07182639       1       5      0.60055368      0.60670447
H               5.89896620     -3.76012207      2.67562790       1       5      0.63397838      0.60670447
H              -5.77880557     -3.10081144      2.09289990       1       5      0.57854594      0.60670447
H              -5.79410929     -4.72854022      2.64921583       1       5      0.61055616      0.60670447
C              -2.54668508      5.59536054      4.61364379       6       6      0.73349736      0.73422372
H              -1.70739446      6.24986899      4.89664353       1       6      0.61671610      0.60670447
H              -3.37684624      6.10389055      5.03826873       1       6      0.62990519      0.60670447
H              -2.40748714      4.64232521      5.08268904       1       6      0.63950443      0.60670447
H              -2.64416718      5.43488321      3.57107913       1       6      0.58299694      0.60670447
C               1.65931965      0.38115344      6.01750772       6       7      0.73203728      0.73422372
H               1.00901685      0.85961705      5.29898575       1       7      0.60958279      0.60670447
H               2.34346216      1.10359167     -6.66493345       1       7      0.57831315      0.60670447
H               2.33496595     -0.34716877      5.51297372       1       7      0.61635090      0.60670447
H               1.10603720     -0.15443502      6.75948658       1       7      0.57970122      0.60670447
C              -1.28242583      2.56072423     -6.29929372       6       8      0.74896363      0.73422372
H              -0.48863741      2.18780309     -5.60794901       1       8      0.59001183      0.60670447
H              -1.08605000      2.46242461      5.80111866       1       8      0.63167800      0.60670447
H              -1.46601777      3.65610997     -6.08762770       1       8      0.63205062      0.60670447
H              -2.21626973      2.02640227     -6.06417082       1       8      0.64316324      0.60670447
C              -4.26782651      4.37554023     -5.84028822       6       9      0.74234118      0.73422372
H              -5.13785651      4.05780461     -5.20197876       1       9      0.60215618      0.60670447
H              -3.43304785      3.92497941     -5.31587260       1       9      0.65380361      0.60670447
H              -4.20804963      5.43504152     -5.78697593       1       9      0.60207235      0.60670447
H              -4.43971637      4.02454554      6.32819925       1       9      0.61534576      0.60670447
C               0.46483748      3.06608797      2.52811869       6      10      0.72609445      0.73422372
H               0.87373720      3.29965346      3.52469309       1      10      0.61512630      0.60670447
H               0.59622524      3.91889753      1.86870067       1      10      0.56524769      0.60670447
H              -0.54136930      2.60850858      2.52819785       1      10      0.57585466      0.60670447
H               1.17800429      2.31262026      2.22069900       1      10      0.60034718      0.60670447
C              -3.34391684     -2.40965337     -3.59097395       6      11      0.74042836      0.73422372
H              -2.59473350     -2.94993848     -2.99469688       1      11      0.59863843      0.60670447
H              -3.43324574     -2.83480483     -4.64020099       1      11      0.61076817      0.60670447
H              -3.03505863     -1.36396494     -3.56607905       1      11      0.61226937      0.60670447
H              -4.34278838     -2.58185911     -3.11171743       1      11      0.61377689      0.60670447
C               1.74868814      5.33356244     -2.39640132       6      12      0.71538259      0.73422372
H               2.54568242      4.69554500     -2.60505937       1      12      0.56340262      0.60670447
H               0.89810442      4.67855266     -2.16432596       1      12      0.55896217      0.60670447
H               1.51576807      5.87685550     -3.30678685       1      12      0.60523703      0.60670447
H               2.03893121      6.08516996     -1.70235208       1      12      0.58408519      0.60670447
C               3.56545146     -4.90682784      1.96032499       6      13      0.74057833      0.73422372
H               4.23485754     -5.13796585      1.08887154       1      13      0.61226401      0.60670447
H               2.64325687     -5.44019991      1.84389812       1      13      0.58044232      0.60670447
H               4.05832378     -5.35352316      2.81333483       1      13      0.63298842      0.60670447
H               3.47279796     -3.79959496      2.10615871       1      13      0.60919520      0.60670447
C              -5.03649571     -4.36217591      6.08977814       6      14      0.72913209      0.73422372
H              -4.92617696     -3.60116192     -6.39152491       1      14      0.60724278      0.60670447
H              -4.14608273     -4.62704794      5.52375227       1      14      0.60788220      0.60670447
H              -5.44437958     -5.22393019      6.66621316       1      14      0.58295780      0.60670447
H              -5.75695818     -3.93777644      5.39295840       1      14      0.61227968      0.60670447
C               1.47052973      5.68986063      5.30275891       6      15      0.72864617      0.73422372
H               2.37749975      5.99551163      5.85755766       1      15      0.59565239      0.60670447
H               1.72750039      5.80709193      4.29402071       1      15      0.59347127      0.60670447
H               0.61032841      6.25478990      5.63474368       1      15      0.62450056      0.60670447
H               1.35184670      4.65167891      5.47541368       1      15      0.59814921      0.60670447
C               5.48542259     -1.35248720      6.49292512       6      16      0.73919098      0.73422372
H               6.10858766     -0.45405691      6.36160353       1      16      0.61201591      0.60670447
H               5.60551726     -2.04290647      5.66576006       1      16      0.62004382      0.60670447
H               4.40920127     -1.08768114     -6.53251685       1      16      0.60929605      0.60670447
H               5.94747637     -1.72335025     -5.77341369       1      16      0.60681607      0.60670447
C               3.38030277      1.03698117     -1.24630178       6      17      0.72635459      0.73422372
H               4.42945232      1.21115264     -1.11172155       1      17      0.59158495      0.60670447
H               3.20244973      0.86349573     -2.36393372       1      17      0.57589436      0.60670447
H               2.85698131      1.93289164     -1.04340900       1      17      0.57387416      0.60670447
H               3.04395062      0.15514743     -0.73485472       1      17      0.61990954      0.60670447
C              -3.83028508      3.12483555     -2.29267916       6      18      0.73464429      0.73422372
H              -4.16765307      3.61290352     -1.41416755       1      18      0.59324867      0.60670447
H              -4.66068370      3.31932394     -2.97184688       1      18      0.61889932      0.60670447
H              -3.63567709      2.05790670     -2.14350765       1      18      0.60958877      0.60670447
H              -2.92608555      3.63366900     -2.72281871       1      18      0.60104478      0.60670447
C              -6.11150329      5.27031611      3.01224337       6      19      0.72697679      0.73422372
H               6.49396450      5.52107183      2.08646179       1      19      0.58040737      0.60670447
H              -6.62328098      4.46488193      3.56313704       1      19      0.56180456      0.60670447
H              -6.09085645      6.15589661      3.62470805       1      19      0.60580592      0.60670447
H              -5.13963755      4.86961092      2.67707912       1      19      0.58204809      0.60670447
C              -3.59878984      0.29024180      5.06119790       6      20      0.72830904      0.73422372
H              -3.88384812      0.52019246      6.09608432       1      20      0.64013869      0.60670447
H              -2.77919617     -0.47954541      5.16098858       1      20      0.59548792      0.60670447
H              -3.16940160      1.10662601      4.54515973       1      20      0.58658338      0.60670447
H              -4.43846305     -0.14337945      4.55576677       1      20      0.57139095      0.60670447
C               3.43957832     -4.36539496      5.47317090       6      21      0.74093154      0.73422372
H               3.33466864     -3.97855541      6.48157928       1      21      0.60232065      0.60670447
H               3.63700957     -3.53554088      4.79256517       1      21      0.62471332      0.60670447
H               2.48445433     -4.81281588      5.17243997       1      21      0.63248457      0.60670447
H               4.25017445     -5.09970670      5.47867232       1      21      0.59990575      0.60670447
C              -4.01119886      6.51637692     -1.45258512       6      22      0.71884477      0.73422372
H              -3.29326942     -5.93923111     -1.19114249       1      22      0.57713585      0.60670447
H              -4.98054476     -6.17317919     -1.62513435       1      22      0.57113326      0.60670447
H              -4.05035529      5.80926874     -0.67197761       1      22      0.58247063      0.60670447
H              -3.74511193      6.03255704     -2.40270750       1      22      0.59894416      0.60670447
C              -5.12736818      0.50499434     -4.71336851       6      23      0.74033224      0.73422372
H              -5.73991300      0.87693921     -5.52782886       1      23      0.61234106      0.60670447
H              -4.13942034      0.82097531     -4.84546848       1      23      0.63305614      0.60670447
H              -5.21354399     -0.57269984     -4.62860448       1      23      0.64111031      0.60670447
H              -5.42590957      0.93128039     -3.76971062       1      23      0.61868966      0.60670447
C               4.40724873     -5.00386095     -2.79660630       6      24      0.72904712      0.73422372
H               5.21138036     -4.86988797     -3.53213385       1      24      0.57034499      0.60670447
H               3.41180733     -4.70229972     -3.18925178       1      24      0.61160798      0.60670447
H               4.57372952     -4.31896946     -1.96793726       1      24      0.60934986      0.60670447
H               4.28844696     -6.03522198     -2.46801209       1      24      0.58956271      0.60670447
C               0.29112700     -5.08693607     -4.78276288       6      25      0.72691352      0.73422372
H               1.07352997     -5.76920218     -5.05590757       1      25      0.61472623      0.60670447
H              -0.71187391     -5.45196790     -5.06340110       1      25      0.58887687      0.60670447
H               0.50572217     -4.16605161     -5.22544883       1      25      0.60181255      0.60670447
H               0.24545329     -4.94194709     -3.73464404       1      25      0.59357752      0.60670447
C               6.39409450     -1.24916112     -1.40126495       6      26      0.72645265      0.73422372
H              -6.45260486     -1.33277714     -0.41912352       1      26      0.58126738      0.60670447
H               5.42679349     -1.75734812     -1.51808760       1      26      0.60233175      0.60670447
H              -6.12658273     -1.65808543     -2.13989281       1      26      0.61301449      0.60670447
H               6.29727205     -0.15702081     -1.50191317       1      26      0.60042098      0.60670447
C              -1.02454486     -3.46703063      5.36370986       6      27      0.73244605      0.73422372
H              -0.31463669     -2.68432765      5.13236011       1      27      0.58347673      0.60670447
H              -1.25109277     -3.62785097      6.42892663       1      27      0.62177908      0.60670447
H              -0.69638548     -4.44088421      4.93722472       1      27      0.60946120      0.60670447
H              -1.91590772     -3.21781846      4.83850266       1      27      0.59841068      0.60670447
135
energy=-1.80052140 iprint=2 task=SinglePoint calculate_stress=T calculate_hirshfeld=T backup_interval=0 write_bib=F opt_strategy=speed num_proc_in_smp=12 xc_functional=PBE0 sedc_apply=F cut_off_energy="700.0000000 eV" finite_basis_corr=0 spin_polarized=F nextra_bands=24 elec_method=dm elec_energy_tol="0.0000001 ev" elec_force_tol="0.0000010 ev/ang" max_scf_cycles=200 fix_occupancy=T popn_calculate=F pdos_calculate_weights=F kpoints_mp_grid="1       1       1" castep_file_name=2.castep castep_run_time=25886.47000000 cutoff=0.00000000 nneightol=1.20000000 pbc="T T T" Lattice="13.03649300       0.00000000       0.00000000       0.00000000      13.03643500       0.00000000       0.00000000       0.00000000      13.03647200" Properties=species:S:1:pos:R:3:Z:I:1:resid:I:1:hirshfeld_rel_volume:R:1:hirshfeld_avg_volume:R:1
C               1.28404241     -4.08248998     -2.63923376       6       1      0.73067930      0.73422372
H               0.78002552     -3.10346675     -2.59652627       1       1      0.59450849      0.60670447
H               1.80593234     -4.08486262     -3.58180979       1       1      0.60755997      0.60670447
H               0.57553509     -4.89263924     -2.50398036       1       1      0.61350932      0.60670447
H               2.03053808     -4.12122123     -1.85300413       1       1      0.60610529      0.60670447
C              -3.10892981     -2.17841436      0.75284322       6       2      0.75196188      0.73422372
H              -2.19039155     -2.26504147      1.38667649       1       2      0.65792566      0.60670447
H              -3.23559238     -1.10245220      0.59270320       1       2      0.60029862      0.60670447
H              -3.99526794     -2.57772037      1.31574505       1       2      0.65523711      0.60670447
H              -2.81207583     -2.76620114     -0.11168346       1       2      0.61724653      0.60670447
C               5.68406739     -0.93900138      3.26709632       6       3      0.73166112      0.73422372
H               6.11962965     -1.57607892      3.98152106       1       3      0.62280912      0.60670447
H               6.16783860     -1.21786376      2.30763805       1       3      0.59846392      0.60670447
H               5.91734239      0.09903780      3.54206159       1       3      0.57588036      0.60670447
H               4.57082910     -0.99451052      3.23861163       1       3      0.60013786      0.60670447
C              -1.35971926     -4.94945202      1.62009452       6       4      0.74034933      0.73422372
H              -1.51854285     -4.20113458      2.41594506       1       4      0.66385135      0.60670447
H              -0.59039669     -5.60475450      1.99963837       1       4      0.58175469      0.60670447
H              -1.02877485     -4.46513542      0.68889933       1       4      0.60181646      0.60670447
H              -2.26897553     -5.59071426      1.44112983       1       4      0.59318069      0.60670447
C              -5.58010135     -4.62125977      2.69454751       6       5      0.74992265      0.73422372
H              -5.31487390     -4.43017171      3.71944886       1       5      0.66107268      0.60670447
H              -5.82500491     -3.72904616      2.21861199       1       5      0.63453047      0.60670447
H              -6.48725876     -5.22465116      2.61862309       1       5      0.64446630      0.60670447
H              -4.67084508     -5.07384568      2.21069885       1       5      0.63770061      0.60670447
C              -2.23768795     -5.45106797      5.56133288       6       6      0.75503352      0.73422372
H              -2.21290558     -4.55826772      6.19961159       1       6      0.66992674      0.60670447
H              -3.34440799     -5.51014909      5.20093961       1       6      0.64097249      0.60670447
H              -1.97238228     -6.39077331      6.06211592       1       6      0.59212568      0.60670447
H              -1.57895396     -5.26158338      4.70458898       1       6      0.64191263      0.60670447
C              -0.80607244     -0.99941222     -6.25731101       6       7      0.75076478      0.73422372
H              -1.63794409     -1.70421404     -5.96422505       1       7      0.64845422      0.60670447
H              -1.12636603     -0.14130192      6.13244768       1       7      0.62020368      0.60670447
H               0.00680505     -1.50548662      6.21522928       1       7      0.63725865      0.60670447
H              -0.39538380     -0.49895651     -5.34513603       1       7      0.60400114      0.60670447
C              -1.94943805      0.89234398      3.26834782       6       8      0.73737997      0.73422372
H              -2.15334184      1.92146623      3.58959257       1       8      0.58927319      0.60670447
H              -2.88212091      0.25387154      3.24129714       1       8      0.63827879      0.60670447
H              -1.13327537      0.48399069      3.81859123       1       8      0.60968038      0.60670447
H              -1.56031177      1.05081488      2.24143885       1       8      0.58267987      0.60670447
C              -4.59266523      2.06225973      5.55795644       6       9      0.73194697      0.73422372
H              -4.32506514      2.39253781      4.51321357       1       9      0.62137226      0.60670447
H              -4.05444058      2.71967411      6.28403578       1       9      0.57000627      0.60670447
H              -4.24353491      1.02835310      5.73617804       1       9      0.59821393      0.60670447
H              -5.63604095      2.09528102      5.79866186       1       9      0.57102309      0.60670447
C               0.92986697      0.35090172     -0.82329232       6      10      0.72377266      0.73422372
H               0.56110370     -0.06214469     -1.76923176       1      10      0.60000828      0.60670447
H               1.68659628     -0.27306117     -0.40054560       1      10      0.60045305      0.60670447
H               0.11101877      0.37265953     -0.12627127       1      10      0.58415055      0.60670447
H               1.20809181      1.37411847     -0.98594838       1      10      0.58616636      0.60670447
C              -2.79769658     -3.62883508     -3.86700869       6      11      0.74071286      0.73422372
H              -1.97860069     -3.60256667     -4.63460920       1      11      0.64553909      0.60670447
H              -3.45778637     -2.79146575     -3.99520936       1      11      0.62352989      0.60670447
H              -2.32490209     -3.62158683     -2.89611744       1      11      0.60657443      0.60670447
H              -3.39229103     -4.54031655     -3.89830926       1      11      0.59561564      0.60670447
C               2.39790645      4.92675559     -0.35478759       6      12      0.72525698      0.73422372
H               2.01359064      4.29871230      0.41953974       1      12      0.56490476      0.60670447
H               3.28862483      5.39465931      0.00202065       1      12      0.61106983      0.60670447
H               1.65023750      5.66602574     -0.62023623       1      12      0.59729418      0.60670447
H               2.70928308      4.33345439     -1.28857704       1      12      0.58225172      0.60670447
C               1.41263438     -2.52587446      3.80661071       6      13      0.74266044      0.73422372
H               0.58211852     -3.10782092      4.28680916       1      13      0.63885536      0.60670447
H               1.19407758     -2.47238597      2.75697917       1      13      0.60533846      0.60670447
H               1.45903126     -1.56907835      4.25962812       1      13      0.60763105      0.60670447
H               2.40140023     -3.09132983      3.89256017       1      13      0.63303289      0.60670447
C              -5.58014046     -3.96379324     -6.41948472       6      14      0.74481920      0.73422372
H              -4.54504292     -4.06310481     -6.50469111       1      14      0.66064734      0.60670447
H              -5.85294212     -2.91374751     -6.47963501       1      14      0.61583425      0.60670447
H              -6.15933881     -4.38608248      5.75286473       1      14      0.63710175      0.60670447
H              -5.92022346     -4.37248548     -5.50313807       1      14      0.62252434      0.60670447
C               3.56106146     -6.36462222      3.62204034       6      15      0.73820308      0.73422372
H               2.88243378     -6.25424273      4.50283654       1      15      0.62201161      0.60670447
H               4.59574184     -6.21899221      3.93096562       1      15      0.62621288      0.60670447
H               3.36316750     -5.51211759      2.97927709       1      15      0.61688952      0.60670447
H               3.40300702      5.78832054      3.00841361       1      15      0.59832917      0.60670447
C               5.83701152      5.94933355     -5.68177685       6      16      0.72601874      0.73422372
H               6.05369107      5.84291713     -4.62897744       1      16      0.56786609      0.60670447
H              -6.23029644      6.08562948     -6.17576788       1      16      0.60235099      0.60670447
H               5.18235795     -6.21111820     -5.73216281       1      16      0.59496627      0.60670447
H               5.36291338      5.10901799     -6.15883350       1      16      0.59145155      0.60670447
C               4.47542805      0.59064176     -1.73583232       6      17      0.72000184      0.73422372
H               4.58558641      1.62540879     -1.99823043       1      17      0.55902988      0.60670447
H               5.42676612      0.24391170     -1.34305645       1      17      0.57612464      0.60670447
H               4.22437126     -0.01068988     -2.58624050       1      17      0.57194655      0.60670447
H               3.74252945      0.46854251     -0.90497885       1      17      0.61025906      0.60670447
C              -0.68694496      5.09605977     -3.02061574       6      18      0.72228103      0.73422372
H              -1.16660969      4.15179167     -2.83886125       1      18      0.55938379      0.60670447
H               0.33047510      4.99702197     -3.34276000       1      18      0.59016579      0.60670447
H              -0.67448207      5.69392371     -2.06216129       1      18      0.59127056      0.60670447
H              -1.21777792      5.68405513     -3.76923515       1      18      0.58441595      0.60670447
C              -6.00128437      4.80230978      3.00602793       6      19      0.73946803      0.73422372
H              -5.57926702      5.64343360      2.42621780       1      19      0.63797518      0.60670447
H              -6.26429562      5.18405571      4.02697924       1      19      0.61884553      0.60670447
H              -5.20667101      4.09783387      3.18879927       1      19      0.59790986      0.60670447
H               6.19951728      4.27840153      2.48588574       1      19      0.58642188      0.60670447
C              -3.14974707     -2.41080185      4.05967471       6      20      0.76663928      0.73422372
H              -3.43112674     -2.17535080      5.12496306       1      20      0.64281234      0.60670447
H              -3.02556144     -3.46205997      3.85574518       1      20      0.69389718      0.60670447
H              -2.14424237     -2.00188800      3.86041223       1      20      0.66630900      0.60670447
H              -3.91195171     -1.98182492      3.44289315       1      20      0.65878529      0.60670447
C               4.07539022     -1.93519359      6.48438028       6      21      0.73336189      0.73422372
H               3.60332577     -0.95787813     -6.70229795       1      21      0.57916593      0.60670447
H               4.28260528     -2.10813494     -5.50176924       1      21      0.58114283      0.60670447
H               5.04963342     -1.89858728      5.96086164       1      21      0.62825885      0.60670447
H               3.44064338     -2.75217394      6.11192828       1      21      0.62321245      0.60670447
C               6.17293587      6.41058869     -0.38127770       6      22      0.73704311      0.73422372
H              -6.52134919     -5.63872745     -0.15061036       1      22      0.63192858      0.60670447
H               5.59247299      6.46853565     -1.32679997       1      22      0.59102307      0.60670447
H               5.56590461      6.07058543      0.45552040       1      22      0.63046392      0.60670447
H              -5.98904310      5.71497756     -0.40591663       1      22      0.57626310      0.60670447
C              -2.31927032      0.10835885     -3.00815288       6      23      0.72872582      0.73422372
H              -1.97234317     -0.86229499     -2.73780252       1      23      0.62413595      0.60670447
H              -1.77542695      0.92301871     -2.54580136       1      23      0.58537922      0.60670447
H              -3.35556723      0.12770492     -2.72210661       1      23      0.57165130      0.60670447
H              -2.26503851      0.17391908     -4.11539259       1      23      0.61383007      0.60670447
C               3.62899463     -3.29026583      0.51822583       6      24      0.74043644      0.73422372
H               3.69299077     -4.28155635      0.06449143       1      24      0.61538585      0.60670447
H               4.11011944     -2.58348247     -0.20091811       1      24      0.61958484      0.60670447
H               4.13654441     -3.22165507      1.48699214       1      24      0.62591752      0.60670447
H               2.59263255     -3.01535349      0.68296773       1      24      0.61047442      0.60670447
C               2.17327464      4.05195865      5.96032714       6      25      0.72271822      0.73422372
H               2.01531145      4.06903638     -5.96035322       1      25      0.57126769      0.60670447
H               1.80787478      4.86925187      5.35778141       1      25      0.60666970      0.60670447
H               1.64322387      3.21156487      5.52114144       1      25      0.55751019      0.60670447
H               3.22916539      3.95616693      5.82294880       1      25      0.58715124      0.60670447
C              -6.34007675     -3.18141160     -2.06924009       6      26      0.72902195      0.73422372
H              -6.31462952     -4.08891695     -1.52997339       1      26      0.62032269      0.60670447
H              -5.28386009     -2.96388564     -2.28024843       1      26      0.61216065      0.60670447
H               6.07138159     -2.49960605     -1.50893252       1      26      0.61197649      0.60670447