135
orig_idx=1775 energy=-0.05553872 iprint=2 task=SinglePoint calculate_stress=T calculate_hirshfeld=T backup_interval=0 write_bib=F opt_strategy=speed num_proc_in_smp=12 xc_functional=PBE0 sedc_apply=F cut_off_energy="700.0000000 eV" finite_basis_corr=0 spin_polarized=F nextra_bands=24 elec_method=dm elec_energy_tol="0.0000001 ev" elec_force_tol="0.0000010 ev/ang" max_scf_cycles=200 fix_occupancy=T popn_calculate=F pdos_calculate_weights=F kpoints_mp_grid="1       1       1" castep_file_name=1.castep castep_run_time=41582.89000000 virial="-687.15824540      -2.95807654       0.51942088      -2.95807654    -686.44110619       1.17587074       0.51942088       1.17587074    -686.20806049" cutoff=-1.00000000 nneightol=1.20000000 pbc="T T T" Lattice="13.94327000       0.00000000       0.00000000       0.00000000      13.94321000       0.00000000       0.00000000       0.00000000      13.94325000" Properties=species:S:1:pos:R:3:resid:I:1:Z:I:1:constraint_force:R:3:frac_pos:R:3:force:R:3:force_ewald:R:3:force_locpot:R:3:force_nlpot:R:3:hirshfeld_charge:R:1:hirshfeld_volume:R:1:hirshfeld_rel_volume:R:1
C               6.96668514      0.81382334      3.01507444       1       6      0.00000000      0.00000000      0.00000000      0.49964500      0.05836700      0.21623900     -0.00306413     -0.01465882     -0.01677009     35.97094205     -5.40340403      0.12945297    -34.80613617      4.99526611     -0.49466637     -2.49678573      0.86336260      0.68627004     -0.17615082     28.58163315      0.72429025
H              -6.12363321      0.21190891      2.86126645       1       1      0.00000000      0.00000000      0.00000000     -0.43918200      0.01519800      0.20520800      0.00529771      0.00459598      0.00589104     53.76832685    -35.25440351    -12.48339664    -49.86455801     32.71153417     11.67734255     -2.79986518      2.00481629      0.49054213      0.04180252      6.43065352      0.58056461
H              -6.72016813      1.87149948      3.06613462       1       1      0.00000000      0.00000000      0.00000000     -0.48196500      0.13422300      0.21990100      0.00683492      0.00616653     -0.00199979     23.67286159     54.00996069      6.12166874    -22.82176193    -50.97972020     -6.06927938     -0.72711632     -3.07336940     -0.16048166      0.04462496      6.42058757      0.57965604
H               6.54469207      0.52524072      3.98910805       1       1      0.00000000      0.00000000      0.00000000      0.46938000      0.03767000      0.28609600      0.00302799     -0.00762045      0.01862586    -11.65634602    -15.45121884     48.22055252     10.38857018     14.71636484    -45.85986718      1.14515193      0.80105675     -2.72362577      0.04294344      6.52779512      0.58933608
H               6.24435404      0.64879150      2.19646623       1       1      0.00000000      0.00000000      0.00000000      0.44784000      0.04653100      0.15752900      0.03848107     -0.00095268      0.04249562    -20.30562263    -13.86985590    -37.67062228     18.59832392     13.46657705     35.91444413      1.98448069      0.45027783      2.26990600      0.04332569      6.81171430      0.61496920
C               2.59183080     -3.87487383      1.13551039       2       6      0.00000000      0.00000000      0.00000000      0.18588400     -0.27790400      0.08143800     -0.00471742     -0.00541619     -0.01818102      2.01301433    -11.91898986    -47.69964830     -3.02178542     12.29004963     50.18938191      1.19298537     -0.12784733     -4.61790488     -0.17599214     28.73363642      0.72814254
H               2.94834627     -4.07837498      2.10385516       2       1      0.00000000      0.00000000      0.00000000      0.21145300     -0.29249900      0.15088700     -0.00311190      0.01109122     -0.00667052     21.37028411    -12.95731172     42.71597389    -19.24690467     11.59740302    -38.46343960     -1.12284061      0.61465199     -3.27133671      0.04187242      6.79564493      0.61351624
H               3.39073834     -3.72297650      0.32201936       2       1      0.00000000      0.00000000      0.00000000      0.24318100     -0.26701000      0.02309500      0.00555947     -0.00061478     -0.00515724     34.64800433      5.04717285    -43.05403854    -33.89611160     -5.20595888     42.55479033     -1.84272773     -0.39343688      1.91362296      0.04953854      6.40626435      0.57836274
H               2.10818059     -2.93637031      1.27721564       2       1      0.00000000      0.00000000      0.00000000      0.15119700     -0.21059500      0.09160100      0.01563079     -0.00853992      0.01168082    -29.53622935     46.49225226     -3.05801744     27.46690823    -42.60505912      3.31206807      1.50982588     -2.96025029     -0.49359828      0.03652163      6.66376799      0.60161087
H               1.81764468     -4.60124536      0.84670386       2       1      0.00000000      0.00000000      0.00000000      0.13036000     -0.32999900      0.06072500     -0.00649446     -0.01027463     -0.00419775    -41.42235309    -34.92802561    -22.53997606     39.70849791     33.03153307     21.69835646      2.18618647      2.00977645      0.79123765      0.04498577      6.45148404      0.58244601
C              -6.82903718     -3.98955673      0.56177354       3       6      0.00000000      0.00000000      0.00000000     -0.48977300     -0.28612900      0.04029000     -0.00013621     -0.00158337      0.00795539     23.30767545      4.26996436    -11.79661071    -23.02872981     -4.73605616     11.27523192     -0.55046377      1.23169596      1.21255519     -0.17593360     28.16550165      0.71374472
H               6.64221130     -4.45392140      1.44111855       3       1      0.00000000      0.00000000      0.00000000      0.47637400     -0.31943300      0.10335600     -0.00643681     -0.00255364     -0.00024487    -15.05986284    -22.12334942     40.43098383     13.91316124     20.97598173    -38.31032035      1.32018088      1.29017275     -2.45632349      0.04596279      6.30131912      0.56888817
H               6.39086992     -3.88343496     -0.23911279       3       1      0.00000000      0.00000000      0.00000000      0.45834800     -0.27851800     -0.01714900     -0.00185687      0.00033204     -0.00232092    -31.12124185      6.48839898    -46.03814577     28.90544437     -6.30963992     43.52985734      2.14324784     -0.33760281      2.36262581      0.04347683      6.24911054      0.56417553
H              -5.97227901     -4.55424280      0.25064386       3       1      0.00000000      0.00000000      0.00000000     -0.42832700     -0.32662800      0.01797600      0.00866227     -0.00262134     -0.00135794     49.03174693    -26.52124132    -18.11024273    -46.02632748     24.34662094     16.91919970     -2.66972924      1.72886160      0.95057909      0.04290664      6.25046456      0.56429821
H              -6.47741579     -2.97985918      0.82662558       3       1      0.00000000      0.00000000      0.00000000     -0.46455500     -0.21371400      0.05928500      0.00090236      0.00489655     -0.00117132     24.43115772     49.46061129      9.01168125    -23.61671249    -46.96896562     -8.25680558     -0.97852455     -2.79726825     -0.72140798      0.04272471      6.18420160      0.55831546
C              -2.24182684     -5.86525312      0.26849122       4       6      0.00000000      0.00000000      0.00000000     -0.16078200     -0.42065300      0.01925600     -0.00790978      0.00234554      0.00609601    -11.57122003     32.43741934      8.55517734     11.44551113    -33.46711570     -6.99703369      0.09136023      1.07890619     -3.27177085     -0.17258841     28.46738705      0.72139536
H              -2.49177390     -6.91042219      0.26818447       4       1      0.00000000      0.00000000      0.00000000     -0.17870800     -0.49561200      0.01923400      0.00306060     -0.00371651      0.00433335    -16.45967519    -50.27357747      5.50101491     15.37112769     46.46343422     -5.16476135      0.73955391      3.19522334      0.04970157      0.03708904      6.38489810      0.57643403
H              -1.20086413     -5.87921027     -0.15050344       4       1      0.00000000      0.00000000      0.00000000     -0.08612500     -0.42165400     -0.01079400      0.00494897     -0.00259356     -0.00486281     44.54549319      5.36331986    -18.38894302    -42.77918454     -4.83739261     17.68579090     -2.67678753      0.11189444      1.08286221      0.04456361      6.38871333      0.57677824
H              -2.30454367     -5.45642426      1.26873815       4       1      0.00000000      0.00000000      0.00000000     -0.16528000     -0.39133200      0.09099300      0.00043064     -0.00156036      0.00193828     -7.54895920     25.33464488     53.31197234      7.43299182    -23.97404084    -50.26415010      0.20020071     -1.21382418     -3.01082168      0.04789304      6.12154823      0.55265958
H              -2.99921132     -5.39748631     -0.44239144       4       1      0.00000000      0.00000000      0.00000000     -0.21510100     -0.38710500     -0.03172800      0.00007741      0.00527701     -0.00783064    -34.41852728     28.04992951    -30.07188252     33.76863705    -27.18109112     29.25623276      1.85997354     -1.08826388      1.72628251      0.04511251      6.31614835      0.57022694
C              -0.77961006      4.76843839     -2.39876884       5       6      0.00000000      0.00000000      0.00000000     -0.05591300      0.34199000     -0.17203800     -0.00134663     -0.00692769      0.00359325     21.33607525      4.26905061     -2.68463366    -21.76063102     -3.35683250      1.88206971      0.11341547     -1.49494811      1.76261254     -0.17679499     28.57313629      0.72407453
H              -1.08084046      3.70340024     -2.29946502       5       1      0.00000000      0.00000000      0.00000000     -0.07751700      0.26560600     -0.16491600      0.00820261      0.03704843     -0.00787452    -11.19539670    -44.92582422      3.15441495     11.10199584     42.68123484     -3.00134452      0.87914051      2.84145899     -0.27137401      0.04701451      6.88604643      0.62167772
H              -1.53434532      5.30663235     -1.86294369       5       1      0.00000000      0.00000000      0.00000000     -0.11004200      0.38058900     -0.13360900      0.00380658      0.01620479     -0.00278715    -36.46317802     31.09414491     29.64700886     33.47941194    -28.92534702    -27.74355712      2.31684297     -1.64859841     -1.67422975      0.03748634      6.63783400      0.59927025
H              -0.80063651      5.08851872     -3.41188539       5       1      0.00000000      0.00000000      0.00000000     -0.05742100      0.36494600     -0.24469800     -0.00859042      0.00509122     -0.00640251      2.84785202     18.24313658    -54.28874547     -2.87756157    -17.06627519     50.12243159      0.08247761     -1.04297609      3.24659141      0.04400704      6.51130782      0.58784582
H               0.15178644      5.07457551     -1.91881429       5       1      0.00000000      0.00000000      0.00000000      0.01088600      0.36394600     -0.13761600      0.00862008      0.00239909      0.00678703     50.30312276     18.40155326     22.38348063    -47.50661838    -18.06417101    -21.14698490     -2.64636877     -0.95207690     -1.39442702      0.04655422      6.26277697      0.56540972
C              -5.54482018     -3.02385001      5.87090302       6       6      0.00000000      0.00000000      0.00000000     -0.39767000     -0.21686900      0.42105700     -0.00920660     -0.01479958      0.00489718     26.67882069     -5.76114323      8.17782696    -26.10445202      5.82586112     -9.31409046     -1.56729179     -0.79219273      1.91356588     -0.17241526     28.66803772      0.72648041
H              -5.84553468     -3.83481499      6.59973064       6       1      0.00000000      0.00000000      0.00000000     -0.41923700     -0.27503100      0.47332800     -0.00484884     -0.00299564      0.00024307     -5.41844214    -34.48053873     31.46080567      5.11454416     33.31950657    -30.35126879      0.76835655      2.02316466     -1.80798772      0.04098743      6.59456044      0.59536308
H              -6.28434334     -3.04910116      5.06806462       6       1      0.00000000      0.00000000      0.00000000     -0.45070800     -0.21868000      0.36347800     -0.00740789     -0.00108572     -0.00550870    -30.72591321     -3.76995338    -41.48239549     28.37656988      3.98820871     39.34014464      2.09803465      0.11857413      2.32610878      0.04057761      6.37380598      0.57543246
H              -4.62828721     -3.30105497      5.37123271       6       1      0.00000000      0.00000000      0.00000000     -0.33193700     -0.23675000      0.38522100      0.00378296      0.01134528      0.00252660     52.91505116    -18.62234464    -26.30327326    -49.61609463     17.94306947     25.05577818     -2.72076499      0.86967628      1.56014610      0.04407557      6.28452928      0.56737261
H              -5.53345642     -2.04598481      6.40034216       6       1      0.00000000      0.00000000      0.00000000     -0.39685500     -0.14673700      0.45902800      0.00565983     -0.00098770      0.00127447      6.69704666     43.02515856     29.22687900     -6.50111152    -41.07794494    -28.35291094     -0.00648630     -2.61791131     -1.44589878      0.04674571      6.52460152      0.58904676
C              -6.50124484     -6.13562590     -5.05953135       7       6      0.00000000      0.00000000      0.00000000     -0.46626400     -0.44004400     -0.36286600     -0.04427324      0.06145369      0.00861908     10.29978743     21.67667288      8.20582255     -9.92518596    -21.42871584     -9.00440144     -1.17130432     -0.44088713      1.71101203     -0.17620275     28.67217699      0.72658468
H              -5.70169591     -6.29112058     -5.74011533       7       1      0.00000000      0.00000000      0.00000000     -0.40892100     -0.45119600     -0.41167700      0.01997526     -0.00372493     -0.00006146     48.33204047     -5.06313641    -40.02170936    -44.95785849      4.49395616     37.24090004     -2.56331731      0.51490931      2.19224830      0.04206967      6.46333300      0.58351501
H               7.08415719     -5.12449220     -5.11913875       7       1      0.00000000      0.00000000      0.00000000      0.50807000     -0.36752600     -0.36714100     -0.00293386      0.01850975     -0.00954237    -14.66217692     56.32392496      2.06932031     13.56288447    -52.59672975     -2.33903276      1.12548230     -3.07869198      0.16458698      0.03893479      6.50145337      0.58695668
H              -6.15550752     -6.30849382     -4.01901632       7       1      0.00000000      0.00000000      0.00000000     -0.44146800     -0.45244200     -0.28824100     -0.05538459      0.05031497     -0.08555819     15.28337858      4.53976805     49.86689230    -14.77660381     -5.12316413    -47.80809295     -0.94733423      0.43686484     -2.80690285      0.04603437      6.62026479      0.59768410
H               6.59483207      7.18158974     -5.37176255       7       1      0.00000000      0.00000000      0.00000000      0.47297600      0.51506000     -0.38525900      0.01384045      0.00169375      0.01171456    -39.06829643    -23.00297906    -13.30927815     37.00602864     21.14804163     12.84686283      2.39358728      1.72812761      0.91694096      0.04397480      6.76065928      0.61035827
C              -6.95307651      4.69550146      0.95845901       8       6      0.00000000      0.00000000      0.00000000     -0.49866900      0.33675900      0.06874000      0.03037231     -0.00714084     -0.00656720     31.11625328     19.91354197     16.87161879    -31.21164546    -20.03467786    -16.15504673      0.69740721      0.44450334     -1.59925803     -0.17425397     28.62357843      0.72535331
H              -6.73271707      5.13787768      1.90888670       8       1      0.00000000      0.00000000      0.00000000     -0.48286500      0.36848600      0.13690400     -0.00244449      0.00771368      0.00546203     21.93563410     27.62428448     55.76623193    -20.96865024    -26.29306013    -52.12365645     -0.66653575     -1.42139446     -2.92801870      0.04398730      6.23559400      0.56295593
H              -6.96662937      5.54864465      0.25935839       8       1      0.00000000      0.00000000      0.00000000     -0.49964100      0.39794600      0.01860100     -0.00445710      0.00744574      0.00301533      4.06507541     48.56211612    -30.92477892     -4.57545755    -46.66877836     29.06256589     -0.03305193     -2.37576745      1.89964151      0.04684414      6.43273599      0.58075763
H               6.07918206      4.11712316      1.02309991       8       1      0.00000000      0.00000000      0.00000000      0.43599400      0.29527800      0.07337600      0.04035501     -0.02397667      0.00312032    -37.68316086    -24.66274863      5.76137563     34.65278804     23.04943204     -5.75119667      2.70495316      1.77893768     -0.22335391      0.04556817      6.81357243      0.61513757
H              -6.15633017      4.03418895      0.60519282       8       1      0.00000000      0.00000000      0.00000000     -0.44152700      0.28933000      0.04340400      0.01108227     -0.00971822      0.00513216     47.92870418    -29.41076245     -9.94459362    -45.62857861     27.58676931      9.25298064     -2.25893934      1.88164198      1.04564844      0.04454752      6.49971122      0.58679954
C               3.19974343      5.72312998      1.18224817       9       6      0.00000000      0.00000000      0.00000000      0.22948300      0.41046000      0.08479000      0.00579263     -0.00735209      0.02288897     -8.40035849     14.40145623    -24.71667412      8.51879445    -15.28321586     23.24987495      0.44634802      2.09259059      3.63540249     -0.17454449     28.71022605      0.72754910
H               4.10973700      5.13680405      1.17930614       9       1      0.00000000      0.00000000      0.00000000      0.29474700      0.36840900      0.08457900     -0.04709872      0.03545944     -0.01427380     41.58524823    -24.04944719     -4.16927653    -38.70804803     22.24075403      3.97076042     -2.71826054      1.74098272     -0.01938789      0.03891531      6.78981184      0.61299159
H               2.68795570      5.50797230      2.15699289       9       1      0.00000000      0.00000000      0.00000000      0.19277800      0.39502900      0.15469800     -0.01205094      0.00826245      0.00074462    -23.53261980     -7.43817323     39.22571419     22.38553071      7.00222228    -37.69384962      1.28199688      0.53676878     -2.53470219      0.04253236      6.72147229      0.60682026
H               2.60081027      5.52315646      0.33679920       9       1      0.00000000      0.00000000      0.00000000      0.18652800      0.39611800      0.02415500     -0.00539695     -0.00695957     -0.00902115    -34.99968122     -7.37402226    -54.07959207     32.27470563      6.38737372     50.45334447      1.96481150      0.64284820      2.80941080      0.04394605      6.29130865      0.56798478
H               3.46795617      6.81026812      1.20582620       9       1      0.00000000      0.00000000      0.00000000      0.24871900      0.48842900      0.08648100      0.00082468      0.00381454      0.00047962     12.97831438     51.04297197     -6.75736968    -12.44610750    -49.08681683      6.70810996     -0.68871586     -2.82335450     -0.08094976      0.04341373      6.59585943      0.59547996
C              -1.40444981     -5.84499363     -5.54638781      10       6      0.00000000      0.00000000      0.00000000     -0.10072600     -0.41920000     -0.39778300      0.00461630     -0.00337438     -0.01184234    -21.00832252     22.95071290      2.05627250     21.49678516    -23.94104249     -2.41434540     -0.56618903      1.93483558      0.67337779     -0.17556095     28.44846339      0.72091588
H              -2.47830470     -5.67372918     -5.72898862      10       1      0.00000000      0.00000000      0.00000000     -0.17774200     -0.40691700     -0.41087900     -0.00790996      0.00390993      0.00123339    -54.73434793     13.44532511    -10.10397952     52.19644144    -12.99102276     10.00202205      2.96879385     -0.47240753      0.54961045      0.04711615      6.27284077      0.56631808
H              -1.16196241     -6.24849619     -4.56882656      10       1      0.00000000      0.00000000      0.00000000     -0.08333500     -0.44813900     -0.32767300      0.00008311      0.00437424      0.00726182     10.34318477    -15.58408080     50.18749558    -10.02764392     14.42768881    -46.99987135     -0.77628492      1.19606705     -2.85949320      0.04330698      6.44959271      0.58227560
H              -0.83552257     -4.89999257     -5.64585896      10       1      0.00000000      0.00000000      0.00000000     -0.05992300     -0.35142500     -0.40491700     -0.00761336     -0.00359903      0.00780820     21.17974100     48.32801494     -5.24633873    -19.98856173    -46.26509892      4.81471919     -1.54954783     -2.57003696      0.23448942      0.04443744      6.49626790      0.58648855
H              -1.07517949     -6.57910364     -6.23950677      10       1      0.00000000      0.00000000      0.00000000     -0.07711100     -0.47185000     -0.44749300     -0.00409847     -0.00213640      0.00077398     12.25094779    -34.57728588    -36.04801762    -10.75982890     31.73128986     32.96231254     -1.04020193      2.38592933      2.19697852      0.03916558      6.59256231      0.59518300
C               3.18864459      1.96323185      4.76159199      11       6      0.00000000      0.00000000      0.00000000      0.22868700      0.14080200      0.34149800      0.03615075      0.02443696      0.03593432     -6.52943154      5.10164276     28.10695303      7.49274301     -5.82960455    -26.95875548     -1.27979812      2.01174411     -2.65510623     -0.16741151     29.13087607      0.73820869
H               3.57463613      2.92899435      4.34726831      11       1      0.00000000      0.00000000      0.00000000      0.25637000      0.21006600      0.31178300      0.00945759      0.01245506     -0.00108651     20.09771689     48.36079635    -14.00268923    -19.49248030    -46.36026960     13.33721705     -1.01413956     -2.47535412      1.08799843      0.03888271      6.56251517      0.59246912
H               3.60617581      1.22297289      4.05186662      11       1      0.00000000      0.00000000      0.00000000      0.25863200      0.08771100      0.29059700      0.01606560      0.04832669      0.03221599     21.91571160    -32.16788791    -25.33085295    -21.35807193     30.23358556     23.98520585     -1.19569573      1.96017482      1.96680188      0.04436650      7.05212428      0.63667236
H               2.06264187      2.04067244      4.79235080      11       1      0.00000000      0.00000000      0.00000000      0.14793100      0.14635600      0.34370400      0.02918458     -0.01330730      0.01751889    -51.45636371      3.76383399     10.96108923     49.91885429     -3.97745519    -10.98206094      2.83772931     -0.23659148     -0.08788869      0.04762573      6.81844519      0.61557758
H               3.60751436      1.86417929      5.73911142      11       1      0.00000000      0.00000000      0.00000000      0.25872800      0.13369800      0.41160500     -0.00330169      0.00858277      0.00714794     18.92806018     -4.64690897     56.42190531    -17.44201132      4.06260394    -52.67673829     -1.33537857      0.27989836     -3.08135118      0.04174937      6.56822044      0.59298523
C               5.32663589      4.52466925     -5.70832472      12       6      0.00000000      0.00000000      0.00000000      0.38202200      0.32450700     -0.40939700     -0.05029063      0.02599041     -0.00229841      0.41419899     23.62179731    -12.52080928     -0.17786599    -23.68135454     14.71368829     -1.77642937     -0.81202891     -4.06586913     -0.17257806     28.95391152      0.73372465
H               4.44305087      5.08758452     -6.09982329      12       1      0.00000000      0.00000000      0.00000000      0.31865200      0.36487900     -0.43747500     -0.00475266      0.01211260     -0.01877601    -44.90755211     29.16071869    -15.10476888     43.60867508    -27.66375352     14.15758939      2.34338442     -1.39639833      0.98872816      0.04220507      6.41846499      0.57946406
H               4.92233684      3.50671731     -5.73683867      12       1      0.00000000      0.00000000      0.00000000      0.35302600      0.25150000     -0.41144200      0.00348836      0.03544664      0.00134934    -24.83515228    -43.99781643     -2.59043041     23.97650185     40.99608931      2.47576464      1.17104347      2.83880225      0.07829202      0.03606894      6.83956896      0.61748233
H               5.42131070      4.73659210     -4.67896429      12       1      0.00000000      0.00000000      0.00000000      0.38881200      0.33970600     -0.33557200      0.01463683      0.00215376     -0.04095045     -0.77476883     18.68476108     54.04679100      1.79360599    -17.43947581    -49.65184896     -0.22836863     -0.65276533     -3.43197756      0.04511042      6.72178368      0.60684936
H               6.21832195      4.54152659     -6.37733580      12       1      0.00000000      0.00000000      0.00000000      0.44597300      0.32571600     -0.45737800     -0.00027172     -0.00546635     -0.00560229     46.51296402      2.52393693    -36.36581852    -44.80666975     -2.12297161     35.38939682     -2.35086901      0.01040986      1.81499174      0.05358001      6.45367707      0.58264377
C               0.40390865     -2.88036044     -3.33218577      13       6      0.00000000      0.00000000      0.00000000      0.02896800     -0.20657800     -0.23898200     -0.01932925     -0.01041374      0.01076188    -23.21365651      1.08741294     -0.47608144     23.64425073     -0.98120766      1.97374955     -0.73639992     -0.56320482     -3.23224119     -0.17437508     28.43790901      0.72064808
H               0.92192901     -3.21234827     -4.26207506      13       1      0.00000000      0.00000000      0.00000000      0.06612000     -0.23038800     -0.30567300      0.00362564      0.00398535      0.01137109     19.93739396    -14.95046624    -41.95741920    -18.72308150     14.21755551     40.26770380     -1.33787057      0.86302317      2.46073404      0.04178501      6.53185996      0.58970451
H              -0.01956241     -3.74658236     -2.84725348      13       1      0.00000000      0.00000000      0.00000000     -0.00140300     -0.26870300     -0.20420300     -0.00541039     -0.00047746     -0.00081001    -25.91270885    -43.45034275     27.12776020     24.09792839     40.59387667    -25.75381495      1.22226490      2.61854148     -1.49098974      0.04408495      6.35219694      0.57348434
H               1.09659636     -2.50177440     -2.63011525      13       1      0.00000000      0.00000000      0.00000000      0.07864700     -0.17942600     -0.18863000      0.01667761     -0.01182460     -0.00927027     34.71377731     18.04647371     38.70177715    -31.59424693    -16.01220334    -35.86345677     -2.27494799     -1.18243159     -2.33754337      0.04418514      6.41944442      0.57955304
H              -0.34004847     -2.14148185     -3.67315401      13       1      0.00000000      0.00000000      0.00000000     -0.02438800     -0.15358600     -0.26343600     -0.00609134     -0.00550972     -0.00468126    -43.99076834     35.22986545    -18.16179297     42.11454100    -33.49885276     17.74561954      2.04288427     -2.04256608      1.00336394      0.04794348      6.30011596      0.56877954
C              -3.22065833     -0.06574224      4.72253695      14       6      0.00000000      0.00000000      0.00000000     -0.23098300     -0.00471500      0.33869700     -0.00458343      0.01039209     -0.00192582     13.56518329     -4.74582228      4.75893226    -14.40868591      4.02001369     -4.84869468      1.07663797      2.12845051      0.21770560     -0.17428573     28.53953590      0.72322388
H              -2.73000861     -0.63313328      3.92728368      14       1      0.00000000      0.00000000      0.00000000     -0.19579400     -0.04540800      0.28166200      0.00873083      0.00166888     -0.00504330     23.56115255    -31.28234198    -40.92108928    -22.02005402     29.57867788     39.09187994     -1.38049112      1.59794522      2.33230285      0.04745129      6.28986666      0.56785524
H              -4.28319128     -0.25585790      4.69787134      14       1      0.00000000      0.00000000      0.00000000     -0.30718700     -0.01835000      0.33692800      0.01623220      0.00183628      0.00791555    -46.80592629     -8.54670074     -0.41119636     43.27969814      7.91821995      0.30299209      3.20531118      0.57130071      0.06772430      0.04076828      6.69229647      0.60418727
H              -2.86739165     -0.20635951      5.75396098      14       1      0.00000000      0.00000000      0.00000000     -0.20564700     -0.01480000      0.41267000     -0.00202628     -0.00556229      0.00427051     19.38291760     -7.87573322     55.29570744    -18.26129315      7.04105787    -52.88796432     -0.95192349      0.32247678     -2.91149495      0.04497753      6.23354693      0.56276939
H              -3.05317178      1.02122859      4.52855845      14       1      0.00000000      0.00000000      0.00000000     -0.21897100      0.07324200      0.32478500      0.00739055      0.00576476     -0.00749909      6.93756512     52.12931451     -8.10618053     -6.70506141    -50.00286667      7.53444033     -0.44939890     -2.84017864      0.48265032      0.03992797      6.32417622      0.57095295