135
orig_idx=1775 energy=0.05702828 iprint=2 task=SinglePoint calculate_stress=T calculate_hirshfeld=T backup_interval=0 write_bib=F opt_strategy=speed num_proc_in_smp=12 xc_functional=PBE0 sedc_apply=F cut_off_energy="700.0000000 eV" finite_basis_corr=0 spin_polarized=F nextra_bands=24 elec_method=dm elec_energy_tol="0.0000001 ev" elec_force_tol="0.0000010 ev/ang" max_scf_cycles=200 fix_occupancy=T popn_calculate=F pdos_calculate_weights=F kpoints_mp_grid="1       1       1" castep_file_name=5.castep castep_run_time=16082.01000000 virial="-679.93364980       1.81396117       3.47193411       1.81396117    -680.82083799       1.80646491       3.47193411       1.80646491    -680.87467290" cutoff=-1.00000000 nneightol=1.20000000 pbc="T T T" Lattice="11.82151960       0.00000000       0.00000000       0.00000000      11.82156160       0.00000000       0.00000000       0.00000000      11.82149860" Properties=species:S:1:pos:R:3:resid:I:1:Z:I:1:constraint_force:R:3:frac_pos:R:3:force:R:3:force_ewald:R:3:force_locpot:R:3:force_nlpot:R:3:hirshfeld_charge:R:1:hirshfeld_volume:R:1:hirshfeld_rel_volume:R:1
C               1.96513849     -3.82672224     -5.12019840       1       6      0.00000000      0.00000000      0.00000000      0.16623400     -0.32370700     -0.43312600     -0.02263639      0.01295091      0.00083500    -16.87864334     -8.30119225      9.15678284     16.60799654      8.14246682     -9.24281609      0.82700887      0.44727627      0.16173830     -0.17280076     29.24058285      0.74098350
H               2.42966510     -2.86403337     -4.85783206       1       1      0.00000000      0.00000000      0.00000000      0.20552900     -0.24227200     -0.41093200      0.01328081     -0.03891972     -0.00537553     15.16025375     42.16581405     14.76466362    -14.16981216    -39.75957270    -14.11575491     -1.32974941     -2.67013602     -0.72987026      0.04404754      7.04661142      0.63617544
H               2.70040154     -4.60270137     -4.89624011       1       1      0.00000000      0.00000000      0.00000000      0.22843100     -0.38934800     -0.41418100     -0.00983714      0.01085792      0.01266379     28.86074797    -40.32463041     11.12132601    -26.91399958     38.05922951    -10.55968074     -2.12645744      2.20971915     -0.66117132      0.04267987      6.97445308      0.62966119
H               1.70609353     -3.83485548      5.64857210       1       1      0.00000000      0.00000000      0.00000000      0.14432100     -0.32439500      0.47782200     -0.01192628      0.03065608      0.01872888    -14.07625269     -1.06444579    -49.78089946     13.39522401      1.06136928     46.48628522      0.78446826      0.01622192      3.11330803      0.04296776      6.89023994      0.62205878
H               1.06096956     -3.99684633     -4.55498891       1       1      0.00000000      0.00000000      0.00000000      0.08974900     -0.33809800     -0.38531400     -0.01226283     -0.01567896     -0.00327409    -47.99548157     -9.61875602     32.76731337     45.08047463      9.11347019    -30.77539546      2.73082198      0.52311932     -1.68244803      0.04370406      6.65395079      0.60072556
C              -0.90205287     -0.79193823     -4.77528254       2       6      0.00000000      0.00000000      0.00000000     -0.07630600     -0.06699100     -0.40394900      0.06461566     -0.00641260     -0.00225787     -0.40584261      6.34219813     23.78152479      0.09625883     -6.77557352    -22.89040271      0.98973333      0.09930067     -2.35983007     -0.17364556     28.87371519      0.73168633
H               0.00478772     -1.38486048     -4.90234000       2       1      0.00000000      0.00000000      0.00000000      0.00040500     -0.11714700     -0.41469700     -0.00918483     -0.00934361      0.00660678     39.98677149    -27.66357816     -0.31657759    -37.25836657     26.00578706      0.00719772     -2.59383839      1.72463585      0.37358408      0.04106019      6.83102862      0.61671254
H              -0.74937795      0.16816171     -5.29508565       2       1      0.00000000      0.00000000      0.00000000     -0.06339100      0.01422500     -0.44792000     -0.01524556      0.00554391      0.00400901      6.69527479     43.82925273    -17.08688804     -6.43246644    -41.39746043     16.22300412     -0.43539691     -2.63221990      1.49001919      0.04579131      6.85977750      0.61930849
H              -1.12628346     -0.75464121     -3.73678753       2       1      0.00000000      0.00000000      0.00000000     -0.09527400     -0.06383600     -0.31610100     -0.00810652     -0.00582713      0.00419423    -11.27296009      2.84007251     59.36362378     10.29039568     -2.32124149    -55.24195765      0.70643420     -0.05926242     -3.34316418      0.04903022      6.44420351      0.58179022
H              -1.66991968     -1.34197185     -5.30819569       2       1      0.00000000      0.00000000      0.00000000     -0.14126100     -0.11351900     -0.44902900      0.05870529     -0.01519235      0.00200162    -35.08484443    -28.16105957    -22.11687661     32.58064989     26.49956649     20.54542017      2.22896291      1.63843734      1.58567986      0.04135467      6.82830902      0.61646727
C              -5.17978796      0.40036083      3.55069350       3       6      0.00000000      0.00000000      0.00000000     -0.43816600      0.03386700      0.30035900     -0.00034421      0.00071673     -0.01217226      8.96023631      9.54479768     -1.38773079     -8.74194299     -9.53494878      0.68011631     -0.57510188     -0.43268112      1.79913210     -0.16518988     29.80166593      0.75520213
H              -5.11290180      0.70547533      2.50895940       3       1      0.00000000      0.00000000      0.00000000     -0.43250800      0.05967700      0.21223700     -0.02806363      0.00278689      0.00965322      5.56139461     17.67475285    -48.67100758     -5.19534720    -16.81735590     45.65066775     -0.15848720     -0.90092762      3.06455712      0.04202401      7.10197098      0.64117317
H              -4.22728084      0.01223532      3.97276828       3       1      0.00000000      0.00000000      0.00000000     -0.35759200      0.00103500      0.33606300     -0.03492640     -0.00007429     -0.00274325     45.12214790    -19.12479775     17.57714673    -43.00072302     18.62428538    -16.89994122     -2.52330570      1.08337681     -1.16723632      0.04531174      6.99959801      0.63193169
H              -5.87658379     -0.46157287      3.63825534       3       1      0.00000000      0.00000000      0.00000000     -0.49710900     -0.03904500      0.30776600      0.02297920      0.01503291     -0.03096860    -27.33242138    -37.84757157      2.46087618     25.67290342     36.20768911     -2.37910263      1.82932150      2.32348821     -0.24248143      0.03960870      7.21674848      0.65153604
H              -5.55548767      1.25367661      4.17326090       3       1      0.00000000      0.00000000      0.00000000     -0.46994700      0.10605000      0.35302300      0.02317738     -0.00267595      0.00912906    -16.24321123     41.42607573     27.94240403     15.63602500    -39.99353217    -26.83706984      0.97131583     -2.21677749     -1.61762917      0.04522541      7.01473495      0.63329772
C               0.18257155     -3.00995873     -0.14302831       4       6      0.00000000      0.00000000      0.00000000      0.01544400     -0.25461600     -0.01209900     -0.01725541      0.00878646     -0.02218769     -7.59984918    -11.43938523    -26.18198147      7.36590626     12.49561293     27.38331894      0.14358949     -1.75326254     -1.79345547     -0.16938356     29.32593390      0.74314610
H               1.09995693     -2.94717441     -0.78547947       4       1      0.00000000      0.00000000      0.00000000      0.09304700     -0.24930500     -0.06644500     -0.01574070     -0.02937976      0.00982887     34.76666315      0.18596561    -32.30025024    -33.38495280     -0.27183031     31.13159327     -2.38610526     -0.17632009      1.64642572      0.04678545      6.91428089      0.62422837
H               0.39842068     -2.57220630      0.80401558       4       1      0.00000000      0.00000000      0.00000000      0.03370300     -0.21758600      0.06801300      0.00444747     -0.02188326     -0.00179549      9.26403070     18.89727085     45.31424330     -8.22321408    -17.18109890    -41.47958219     -0.66431690     -1.38506452     -3.00658141      0.03693281      7.02543818      0.63426391
H              -0.15532295     -4.06013897      0.06077432       4       1      0.00000000      0.00000000      0.00000000     -0.01313900     -0.34345200      0.00514100      0.02448456      0.03184426     -0.00161342    -15.74141176    -44.11316713      4.25892371     15.31527483     42.30250725     -4.18788988      0.88184644      2.69890021     -0.56327277      0.04446109      6.94008639      0.62655809
H              -0.65140119     -2.42405849     -0.54941597       4       1      0.00000000      0.00000000      0.00000000     -0.05510300     -0.20505400     -0.04647600      0.01194521     -0.00645001     -0.01563186    -39.64789099     25.88438693    -26.44749528     37.55109075    -24.49299761     25.08326505      2.36720212     -1.66851269      1.11114220      0.04266808      6.79951793      0.61386756
C              -2.95366578      3.61188900     -2.57622373       5       6      0.00000000      0.00000000      0.00000000     -0.24985500      0.30553400     -0.21792700      0.04809918     -0.05557569     -0.01279279     12.45993165    -21.66200541     -8.57439344    -12.59337300     21.06605941      8.98808299      0.78545086      1.50820948     -0.52068116     -0.16640705     29.70705278      0.75280588
H              -2.20725503      3.31698833     -3.34555503       5       1      0.00000000      0.00000000      0.00000000     -0.18671500      0.28058800     -0.28300600     -0.00689116     -0.03349603      0.04183831     36.84021847    -20.65543933    -31.38545681    -35.28873339     20.13927915     29.82345051     -2.00387466      0.79707097      2.05953995      0.04137545      6.87361520      0.62055743
H              -2.85087767      2.93525828     -1.73080925       5       1      0.00000000      0.00000000      0.00000000     -0.24116000      0.24829700     -0.14641200     -0.01086201      0.00097442     -0.00346253      6.92213777    -38.54001009     35.43064399     -6.84477421     36.40113505    -32.98488388     -0.34383475      1.96247261     -2.48556978      0.03920651      7.03061047      0.63473127
H              -3.96143850      3.59011369     -3.02240255       5       1      0.00000000      0.00000000      0.00000000     -0.33510400      0.30369200     -0.25567000      0.00168823      0.00560448     -0.01036855    -44.61109342     -8.16584866    -22.47948943     42.20952233      8.09614322     21.55846011      2.79670545      0.04831455      1.25331599      0.04377111      7.00144883      0.63209779
H              -2.71750728      4.64706769     -2.17930509       5       1      0.00000000      0.00000000      0.00000000     -0.22987800      0.39310100     -0.18435100     -0.01305476     -0.05001376     -0.03171984     16.32752030     40.87047281     14.51017618    -16.04937001    -39.43692502    -14.19491659     -0.58747228     -2.56134824     -1.01498093      0.04551008      7.26177357      0.65560129
C              -4.87232205      4.55152583      4.13705165       6       6      0.00000000      0.00000000      0.00000000     -0.41215700      0.38501900      0.34996000     -0.02729718     -0.03379570     -0.08909057    -15.35915900      7.32914314    -17.56617313     17.19932064     -7.95480123     17.25221461     -4.14651276      1.35258206      0.59950493     -0.17653895     28.91616965      0.73276324
H              -4.11488183      4.46427088      4.85102288       6       1      0.00000000      0.00000000      0.00000000     -0.34808400      0.37763800      0.41035600     -0.00271340     -0.00660922     -0.01867472     38.11424342     -3.85280938     35.64383875    -34.22118505      3.45084963    -32.15990308     -2.58754219      0.30523734     -2.45395358      0.04150382      6.96139147      0.62848185
H              -4.94708134      5.57867767      3.78020789       6       1      0.00000000      0.00000000      0.00000000     -0.41848100      0.47190700      0.31977400     -0.00797260     -0.01197296     -0.00329894     -5.13145716     49.35277950    -23.80291062      4.89754350    -46.37253835     22.87541820      0.22220135     -2.96387778      1.04881507      0.04508398      6.68977586      0.60396037
H               5.98405322      4.26361169      4.62971260       6       1      0.00000000      0.00000000      0.00000000      0.50620000      0.36066400      0.39163500      0.03069690      0.00842721     -0.06935743    -46.00501714    -13.47990262     15.38846738     44.29500005     12.99229677    -14.70474251      2.48596227      0.73588564     -1.28753897      0.04431237      6.85158068      0.61856876
H              -4.68722070      3.92985354      3.30985411       6       1      0.00000000      0.00000000      0.00000000     -0.39649900      0.33243100      0.27998600      0.03139186      0.00449235     -0.00061570      6.85551298    -29.29723889    -47.82017098     -5.97852091     26.29552213     44.02792147     -0.61630276      2.06750080      2.77797820      0.04390169      6.67998315      0.60307586
C               4.39832640     -2.23758518      1.21327587       7       6      0.00000000      0.00000000      0.00000000      0.37206100     -0.18928000      0.10263300      0.03200034     -0.00594893     -0.00090292      4.22520965    -22.29883680      7.47791520     -3.62960241     21.67088019     -7.72918189     -1.03734089      1.19483744     -0.42961701     -0.17029044     29.49056501      0.74731856
H               4.02331234     -3.20804081      0.91209955       7       1      0.00000000      0.00000000      0.00000000      0.34033800     -0.27137200      0.07715600     -0.00698612      0.00134873     -0.00985443    -17.35397195    -53.65349400    -10.83391352     16.07963984     50.40256204     10.31486613      1.09905737      2.85267768      0.96571249      0.03989232      6.80814836      0.61464685
H               3.72227734     -1.51657632      0.69277528       7       1      0.00000000      0.00000000      0.00000000      0.31487300     -0.12828900      0.05860300     -0.00340184     -0.02462598      0.01751567    -28.42533000     26.44134433    -22.36439746     27.30602550    -24.86165625     21.48505827      1.79335330     -1.85162065      1.37942061      0.04193960      7.19389388      0.64947277
H               5.40504701     -2.18560577      0.78747731       7       1      0.00000000      0.00000000      0.00000000      0.45722100     -0.18488300      0.06661400     -0.03292955     -0.00988454      0.00692721     46.70006033     -3.30982267    -19.28167072    -43.93669519      3.74233328     18.30803197     -2.87646055     -0.10963078      1.24931907      0.04227785      7.08169982      0.63934279
H               4.38227278     -2.05942242      2.30079463       7       1      0.00000000      0.00000000      0.00000000      0.37070300     -0.17420900      0.19462800     -0.01728390      0.01177080     -0.02265322      0.00287826      0.59857021     47.55422373     -0.03088557     -0.32054248    -45.08108115      0.05544288     -0.52485438     -3.02385033      0.04472222      7.06609772      0.63793490
C               1.49053994      3.06738787     -5.14437337       8       6      0.00000000      0.00000000      0.00000000      0.12608700      0.25947400     -0.43517100      0.04663249     -0.05733378      0.02121383      5.91864993      1.97067636     24.34719509     -5.84292527     -2.80445744    -24.59664133      0.04138850      1.48947221      0.26403475     -0.17448195     29.05765455      0.73634909
H               0.48618364      2.74281508     -4.90572095       8       1      0.00000000      0.00000000      0.00000000      0.04112700      0.23201800     -0.41498300      0.01739874     -0.00333162      0.00545789    -46.47111912    -17.91887123     19.27837910     43.31307490     16.93508362    -18.37557661      2.99788239      0.97340544     -0.69602117      0.04340246      6.84736853      0.61818788
H               2.14922319      2.22144875     -5.17077077       8       1      0.00000000      0.00000000      0.00000000      0.18180600      0.18791500     -0.43740400     -0.01030268      0.01717616      0.01099241     32.21063279    -38.20519818      4.73907112    -29.81264675     35.13069599     -4.68603793     -2.03972372      2.62268198      0.10111655      0.04152921      6.86449180      0.61973335
H               1.85896942      3.81983027     -4.42671383       8       1      0.00000000      0.00000000      0.00000000      0.15725300      0.32312400     -0.37446300     -0.02634670      0.00550771      0.00819115     16.14263424     33.64114288     39.21018837    -15.37820194    -31.93251875    -37.45823980     -1.02462901     -2.08487247     -1.97623430      0.04683072      6.66519924      0.60174141
H               1.48298599      3.50361532      5.68228702       8       1      0.00000000      0.00000000      0.00000000      0.12544800      0.29637500      0.48067400      0.00349875      0.00202472     -0.00723036      3.66758734     20.34201844    -45.93858832     -3.70655350    -18.92665615     42.90967066      0.01481142     -1.26847244      2.91611181      0.04150654      6.90929453      0.62377911
C               5.69046578     -3.62533012      5.08890690       9       6      0.00000000      0.00000000      0.00000000      0.48136500     -0.30667100      0.43047900      0.00915816      0.00521482      0.00748765      2.85480042     -7.90281167    -17.03246151     -2.39231794      7.38493059     17.42648387     -0.86376019      0.43079883     -0.67373233     -0.17080537     29.32662267      0.74316547
H               4.97110267     -4.29873355      5.56890702       9       1      0.00000000      0.00000000      0.00000000      0.42051300     -0.36363500      0.47108300      0.00914189      0.00535031     -0.02308977    -34.13378204    -33.69438463     16.07268899     32.11024138     32.02093072    -14.83891157      2.02515443      1.92911940     -1.35848746      0.04314852      7.01073881      0.63293685
H               5.39232706     -3.45518238      4.03812935       9       1      0.00000000      0.00000000      0.00000000      0.45614500     -0.29227800      0.34159200      0.00119535     -0.02367241     -0.00882168    -12.96792442      1.36933809    -51.15563244     12.19268147     -0.88265320     48.81511579      0.80175750     -0.43807221      2.88394672      0.04248852      6.82151641      0.61585351
H              -5.18308616     -4.14706292      5.07480385       9       1      0.00000000      0.00000000      0.00000000     -0.43844500     -0.35080500      0.42928600     -0.00390776      0.02127073      0.01034163     47.79561669    -24.64304386     -3.97743359    -44.62527579     23.15556859      4.03109004     -2.81314679      1.58565270      0.05126172      0.04194563      6.87362688      0.62055849
H               5.75455024     -2.68215865      5.64904496       9       1      0.00000000      0.00000000      0.00000000      0.48678600     -0.22688700      0.47786200      0.01726155     -0.03663955      0.00946326      5.77042121     38.66802027     23.25050069     -5.54157830    -36.36726784    -21.90585853     -0.18005679     -2.64451480     -1.59338620      0.04364691      7.12809861      0.64353190
C              -1.85645144     -3.53542714      3.73653928      10       6      0.00000000      0.00000000      0.00000000     -0.15704000     -0.29906600      0.31608000     -0.02219131     -0.00762182     -0.01143960     -5.88395632     -4.81863204     -1.19835091      6.12944280      5.19869773      1.51508753     -0.41871555     -0.50282825     -0.85333306     -0.17632529     28.88617945      0.73200265
H              -1.26732601     -2.71183077      3.38930640      10       1      0.00000000      0.00000000      0.00000000     -0.10720500     -0.22939700      0.28670700      0.00168770      0.00346420      0.00208323     28.90136081     41.14002237    -16.58562915    -26.34450918    -38.25596328     15.22899216     -1.78281728     -2.58732175      1.06917398      0.04294225      6.75405377      0.60976424
H              -1.40019989     -4.50205259      3.52270019      10       1      0.00000000      0.00000000      0.00000000     -0.11844500     -0.38083400      0.29799100      0.00352885      0.01598902     -0.00719832     18.43815543    -44.21308832    -11.98026609    -17.08019666     41.57601983     11.26514871     -1.32075260      2.81441577      0.61263770      0.04683419      6.90533401      0.62342108
H              -2.79794090     -3.42513197      3.20817740      10       1      0.00000000      0.00000000      0.00000000     -0.23668200     -0.28973600      0.27138500      0.01098792      0.00264030      0.01781712    -46.88745780      2.24612831    -25.16292568     43.83949679     -2.17076086     23.77515097      2.74057360     -0.36368039      1.58526095      0.04262226      6.75299209      0.60966722
H              -1.96564681     -3.40949205      4.79126520      10       1      0.00000000      0.00000000      0.00000000     -0.16627700     -0.28841300      0.40530100      0.00645796      0.00713300      0.00246172     -6.60372364      7.51091852     54.17807334      5.96660865     -7.13771072    -50.13475667      0.30694369     -0.41452515     -3.31073657      0.04334270      6.74086573      0.60857317
C               4.75303110     -3.14072884     -2.64055632      11       6      0.00000000      0.00000000      0.00000000      0.40206600     -0.26567800     -0.22336900     -0.03748800     -0.01630158      0.04435446    -12.61261537     -1.06419622      9.18037166     13.25508335      2.04900185     -8.65696116     -0.73920317     -1.91189047     -1.26283004     -0.17577225     29.42409633      0.74563364
H               3.70184976     -2.96984817     -2.43529964      11       1      0.00000000      0.00000000      0.00000000      0.31314500     -0.25122300     -0.20600600      0.01248333      0.00435344     -0.00335229    -53.66710093      7.77864465     10.95950178     50.41510458     -7.83086786    -10.28801406      3.09761048     -0.58390543     -0.59467898      0.04746164      6.96011933      0.62836728
H               4.96256753     -3.70328149     -3.56539944      11       1      0.00000000      0.00000000      0.00000000      0.41979100     -0.31326500     -0.30160300     -0.00013760      0.04571680      0.01503080      6.81182610    -24.25616669    -39.92582540     -6.72728725     22.93499485     37.64836639     -0.63986187      1.53564215      2.54416172      0.04371554      7.24947527      0.65449044
H               5.31086497     -3.63306142     -1.86495962      11       1      0.00000000      0.00000000      0.00000000      0.44925400     -0.30732500     -0.15776000     -0.00639208      0.02514315      0.00110232     25.96277079    -22.54192833     42.08932598    -24.33663684     20.89949557    -39.10949507     -1.76000220      1.51340332     -2.34100943      0.04462898      7.08264168      0.63942874
H               5.14153352     -2.17973046     -2.78053469      11       1      0.00000000      0.00000000      0.00000000      0.43493000     -0.18438600     -0.23521000     -0.00455464     -0.00977933     -0.00860210     21.12428692     55.04288409     -5.54597119    -18.93869368    -50.25338682      4.86746616     -1.28138827     -3.26250509      0.48392793      0.03767514      6.92808660      0.62547481
C               3.31664554      2.24688875      1.95067731      12       6      0.00000000      0.00000000      0.00000000      0.28056000      0.19006700      0.16501100     -0.01528657      0.04338533      0.01859024     -3.46078435     33.08736960      0.66133753      4.02241341    -33.25656119     -0.55772122     -1.50064584     -0.01086171     -0.01138808     -0.16924200     29.35537591      0.74389264
H               3.31184600      3.01631873      1.17602632      12       1      0.00000000      0.00000000      0.00000000      0.28015400      0.25515400      0.09948200      0.00413293      0.00609508      0.01694644     -1.78991201     42.68455225    -36.12063237      1.94554816    -40.51249253     34.05576293      0.03920024     -2.20974159      2.23710774      0.04461107      6.85054560      0.61847489
H               4.22047164      2.23680496      2.53735464      12       1      0.00000000      0.00000000      0.00000000      0.35701600      0.18921400      0.21463900      0.01329745      0.00058560     -0.01286049     43.87175379      8.64565418     30.30982095    -40.67087049     -8.59268257    -28.53989078     -2.73216260      0.04428470     -1.81270870      0.04471452      6.89177247      0.62219630
H               3.15971487      1.26577007      1.48649434      12       1      0.00000000      0.00000000      0.00000000      0.26728500      0.10707300      0.12574500      0.01491886      0.06530939      0.04182660     -8.97643706    -38.16994383    -21.78503179      8.63372145     35.65958065     20.61314597      0.45412946      2.77683871      1.30544878      0.04248192      7.27277533      0.65659378
H               2.48363034      2.43370489      2.64664439      12       1      0.00000000      0.00000000      0.00000000      0.21009400      0.20587000      0.22388400     -0.01190054      0.01020976     -0.01397891    -39.09563496     15.94155372     32.36903911     36.95905061    -15.44442345    -30.73774539      2.30577395     -0.51745471     -1.93621769      0.04294141      6.83383298      0.61696601
C               2.36134854      0.12355896     -1.47152832      13       6      0.00000000      0.00000000      0.00000000      0.19975000      0.01045200     -0.12447900     -0.00568700     -0.00814869     -0.05171333    -17.13497088     15.88930652    -30.52039913     16.04323532    -15.75667510     31.54786991      2.33197385     -0.41836209     -1.66694405     -0.16977233     29.31338306      0.74282820
H               1.56282853      0.49370388     -2.11931098      13       1      0.00000000      0.00000000      0.00000000      0.13220200      0.04176300     -0.17927600     -0.01533061     -0.00624705     -0.00105135    -41.41978809     21.39652545    -34.28711912     39.39196211    -20.34157648     32.40048665      2.31792899     -1.05879258      1.85228182      0.04704661      6.58243115      0.59426906
H               2.18811599     -0.92565192     -1.23935409      13       1      0.00000000      0.00000000      0.00000000      0.18509600     -0.07830200     -0.10483900     -0.01426129      0.03120969     -0.01462726    -12.60485924    -47.34212680      4.65875943     12.02408914     44.24901149     -4.06038705      0.49818148      3.04756091     -0.68309835      0.03764167      7.07914913      0.63911277
H               3.39852138      0.20521049     -1.93528571      13       1      0.00000000      0.00000000      0.00000000      0.28748600      0.01735900     -0.16370900     -0.02854925      0.00098332      0.00896618     38.32033839      6.71305301    -26.54377186    -37.25266794     -6.49875215     25.81400490     -2.53379518     -0.18638126      1.09528916      0.04571584      6.95354027      0.62777296
H               2.36899706      0.66566031     -0.54112910      13       1      0.00000000      0.00000000      0.00000000      0.20039700      0.05630900     -0.04577500     -0.01486602     -0.00068446     -0.04062856     -6.03268892     30.39577370     37.60127927      5.99998135    -28.42527963    -34.47477634     -0.02763290     -1.64608511     -2.83272646      0.03968506      7.07453638      0.63869757
C              -1.86278777      2.15326198      4.14322247      14       6      0.00000000      0.00000000      0.00000000     -0.15757600      0.18214700      0.35048200      0.00834477     -0.02081752     -0.00682299      6.64647553      4.07431515     -0.30593039     -7.13490739     -5.12684010      0.10634742      0.16469134      1.60676015      0.95941186     -0.17493402     29.34091507      0.74352730
H              -1.60474764      3.20001397      3.92026901      14       1      0.00000000      0.00000000      0.00000000     -0.13574800      0.27069300      0.33162200     -0.01498982     -0.00132728      0.00651581     12.90794576     47.33362265    -12.53143640    -12.02969745    -45.07881944     11.41255395     -0.66356751     -2.94195149      0.53286119      0.04772374      7.00976763      0.63284935
H              -2.43166294      1.60958836      3.41773710      14       1      0.00000000      0.00000000      0.00000000     -0.20569800      0.13615700      0.28911200      0.02715655      0.02449319      0.03643628    -27.01766745    -26.36180273    -35.94675078     24.55879327     24.98583486     33.04063451      1.73469679      1.78668067      2.22631373      0.04423808      7.03052447      0.63472292
H              -2.43437007      2.25207841      5.06414086      14       1      0.00000000      0.00000000      0.00000000     -0.20592700      0.19050600      0.42838400      0.00040117      0.00901413     -0.01225558    -27.16326337      2.69694686     47.42208653     25.36582832     -2.77493746    -44.63927756      1.65473546     -0.33610717     -2.66507427      0.04239346      6.94123802      0.62666246
H              -1.04472679      1.48192732      4.30030655      14       1      0.00000000      0.00000000      0.00000000     -0.08837500      0.12535800      0.36377000      0.01237698     -0.00152843     -0.02154713     42.20451658    -33.53646164      8.93237657    -38.71327152     31.52296247     -8.09376931     -2.48203708      2.15971838     -0.44821758      0.04139406      6.88991878      0.62202905