135
orig_idx=1775 energy=-0.23135600 iprint=2 task=SinglePoint calculate_stress=T calculate_hirshfeld=T backup_interval=600 write_bib=F opt_strategy=speed xc_functional=PBE sedc_apply=F cut_off_energy="650.0000000 eV" spin_polarized=F nextra_bands=24 elec_energy_tol="0.0000010 ev" elec_force_tol="0.0000100 ev/ang" max_scf_cycles=200 fix_occupancy=F smearing_width="0.1000000 eV" mixing_scheme=Pulay mix_history_length=20 mix_charge_amp=0.15000000 popn_calculate=F pdos_calculate_weights=F kpoints_mp_grid="1       1       1" castep_file_name=1.castep castep_run_time=666.87000000 virial="4.52251471      -2.83170669       0.46194620      -2.83170669       5.22517104       0.96097939       0.46194620       0.96097939       5.22105966" cutoff=-1.00000000 nneightol=1.20000000 pbc="T T T" Lattice="13.94327000       0.00000000       0.00000000       0.00000000      13.94321000       0.00000000       0.00000000       0.00000000      13.94325000" Properties=species:S:1:pos:R:3:resid:I:1:Z:I:1:constraint_force:R:3:frac_pos:R:3:force:R:3:force_ewald:R:3:force_locpot:R:3:force_nlpot:R:3:hirshfeld_charge:R:1:hirshfeld_volume:R:1:hirshfeld_rel_volume:R:1
C               6.96668514      0.81382334      3.01507444       1       6      0.00000000      0.00000000      0.00000000      0.49964500      0.05836700      0.21623900     -0.00060243     -0.01698251     -0.01722896     35.97094205     -5.40340403      0.12945297    -36.37110622      5.59782775     -0.40225284     -0.93850035      0.26745792      0.57247984     -0.16141556     28.71137610      0.73802536
H              -6.12363321      0.21190891      2.86126645       1       1      0.00000000      0.00000000      0.00000000     -0.43918200      0.01519800      0.20520800      0.01030447     -0.00155150      0.00928739     53.76832685    -35.25440351    -12.48339664    -50.71769927     33.31517791     11.83184482     -1.76179653      1.26393311      0.30582337      0.03783182      6.38638276      0.60657175
H              -6.72016813      1.87149948      3.06613462       1       1      0.00000000      0.00000000      0.00000000     -0.48196500      0.13422300      0.21990100      0.00854873      0.01162924     -0.00480312     23.67286159     54.00996069      6.12166874    -23.04330455    -51.89460240     -6.11388235     -0.45561027     -1.93462997     -0.09818273      0.04084657      6.37773173      0.60621525
H               6.54469207      0.52524072      3.98910805       1       1      0.00000000      0.00000000      0.00000000      0.46938000      0.03767000      0.28609600     -0.00064449     -0.00538811      0.01867378    -11.65634602    -15.45121884     48.22055252     10.73297728     14.95368633    -46.66207755      0.72556140      0.50427868     -1.71519799      0.03927768      6.47538406      0.61604513
H               6.24435404      0.64879150      2.19646623       1       1      0.00000000      0.00000000      0.00000000      0.44784000      0.04653100      0.15752900      0.03598297     -0.00193187      0.04709441    -20.30562263    -13.86985590    -37.67062228     19.18871943     13.60057512     36.58355297      1.24606966      0.28064418      1.43326764      0.03999448      6.71490479      0.63896775
C               2.59183080     -3.87487383      1.13551039       2       6      0.00000000      0.00000000      0.00000000      0.18588400     -0.27790400      0.08143800     -0.00418210     -0.00946757     -0.01728458      2.01301433    -11.91898986    -47.69964830     -1.54954822     11.26592495     46.90194350     -0.20998054      0.81523255     -1.38415070     -0.16131094     28.86355900      0.74196039
H               2.94834627     -4.07837498      2.10385516       2       1      0.00000000      0.00000000      0.00000000      0.21145300     -0.29249900      0.15088700     -0.00880558      0.01108077     -0.00027996     21.37028411    -12.95731172     42.71597389    -19.60330271     11.79731594    -39.45166880     -0.70806498      0.39020337     -2.05815819      0.03807884      6.71289790      0.63771126
H               3.39073834     -3.72297650      0.32201936       2       1      0.00000000      0.00000000      0.00000000      0.24318100     -0.26701000      0.02309500      0.00911558     -0.00035447     -0.00723668     34.64800433      5.04717285    -43.05403854    -34.42748239     -5.30867256     43.09620710     -1.16752814     -0.24789547      1.21184078      0.04595693      6.39143553      0.60719838
H               2.10818059     -2.93637031      1.27721564       2       1      0.00000000      0.00000000      0.00000000      0.15119700     -0.21059500      0.09160100      0.01343554     -0.00483888      0.00993560    -29.53622935     46.49225226     -3.05801744     27.92318972    -43.49652079      3.17076802      0.94945639     -1.86529801     -0.30845159      0.03298821      6.59341184      0.62671377
H               1.81764468     -4.60124536      0.84670386       2       1      0.00000000      0.00000000      0.00000000      0.13036000     -0.32999900      0.06072500     -0.00738794     -0.01198750     -0.00464347    -41.42235309    -34.92802561    -22.53997606     40.34890820     33.62998842     21.93456476      1.37569101      1.26870782      0.50330946      0.04121821      6.41743920      0.60974252
C              -6.82903718     -3.98955673      0.56177354       3       6      0.00000000      0.00000000      0.00000000     -0.48977300     -0.28612900      0.04029000      0.00095940      0.00037897      0.00466131     23.30767545      4.26996436    -11.79661071    -23.51365238     -4.38315614     11.96670178     -0.07886576      0.84852879      0.51895431     -0.16090270     28.30599385      0.72761572
H               6.64221130     -4.45392140      1.44111855       3       1      0.00000000      0.00000000      0.00000000      0.47637400     -0.31943300      0.10335600     -0.00653608     -0.00165637      0.00086422    -15.05986284    -22.12334942     40.43098383     14.30348619     21.35908595    -39.03619789      0.83205503      0.81580512     -1.54798852      0.04216562      6.29185180      0.59748316
H               6.39086992     -3.88343496     -0.23911279       3       1      0.00000000      0.00000000      0.00000000      0.45834800     -0.27851800     -0.01714900     -0.00509972      0.00112262      0.00070049    -31.12124185      6.48839898    -46.03814577     29.54430250     -6.40479871     44.23774079      1.34998331     -0.21215559      1.48985353      0.03965464      6.23266844      0.59261704
H              -5.97227901     -4.55424280      0.25064386       3       1      0.00000000      0.00000000      0.00000000     -0.42832700     -0.32662800      0.01797600      0.01254435     -0.00428029     -0.00590225     49.03174693    -26.52124132    -18.11024273    -46.82450645     24.87098775     17.20707279     -1.67784693      1.09187074      0.59674442      0.03900848      6.23321473      0.59269194
H              -6.47741579     -2.97985918      0.82662558       3       1      0.00000000      0.00000000      0.00000000     -0.46455500     -0.21371400      0.05928500      0.00427070      0.00697781      0.00179130     24.43115772     49.46061129      9.01168125    -23.90493633    -47.79555625     -8.47274510     -0.61147281     -1.76280101     -0.45567993      0.03912081      6.17564948      0.58717724
C              -2.24182684     -5.86525312      0.26849122       4       6      0.00000000      0.00000000      0.00000000     -0.16078200     -0.42065300      0.01925600     -0.00532656      0.00469755      0.00828385    -11.57122003     32.43741934      8.55517734     11.65087985    -31.66262821     -8.53416558     -0.10105899     -0.62637375     -1.70891661     -0.15827671     28.59837004      0.73511437
H              -2.49177390     -6.91042219      0.26818447       4       1      0.00000000      0.00000000      0.00000000     -0.17870800     -0.49561200      0.01923400     -0.00023834     -0.00914522      0.00827936    -16.45967519    -50.27357747      5.50101491     15.59970993     47.42182217     -5.16345204      0.46845702      2.01076887      0.03092785      0.03348802      6.35325706      0.60373230
H              -1.20086413     -5.87921027     -0.15050344       4       1      0.00000000      0.00000000      0.00000000     -0.08612500     -0.42165400     -0.01079400      0.00709399     -0.00546238     -0.00765054     44.54549319      5.36331986    -18.38894302    -43.55903000     -4.82207329     17.99983412     -1.68863794      0.06211896      0.68172193      0.04100138      6.36582303      0.60468806
H              -2.30454367     -5.45642426      1.26873815       4       1      0.00000000      0.00000000      0.00000000     -0.16528000     -0.39133200      0.09099300      0.00459338     -0.00139275      0.00413319     -7.54895920     25.33464488     53.31197234      7.49032763    -24.34092125    -51.16531037      0.12380257     -0.76095261     -1.89117026      0.04400976      6.10935184      0.58090812
H              -2.99921132     -5.39748631     -0.44239144       4       1      0.00000000      0.00000000      0.00000000     -0.21510100     -0.38710500     -0.03172800     -0.00430670      0.00851767     -0.00928887    -34.41852728     28.04992951    -30.07188252     34.29720723    -27.50698377     29.75405241      1.17493013     -0.68964658      1.09290350      0.04162462      6.30582248      0.59908753
C              -0.77961006      4.76843839     -2.39876884       5       6      0.00000000      0.00000000      0.00000000     -0.05591300      0.34199000     -0.17203800     -0.00047996     -0.00779599      0.00340705     21.33607525      4.26905061     -2.68463366    -20.87685785     -5.07337516      2.45302672     -0.70148497      0.15540696      1.15922725     -0.16191688     28.70526874      0.73787912
H              -1.08084046      3.70340024     -2.29946502       5       1      0.00000000      0.00000000      0.00000000     -0.07751700      0.26560600     -0.16491600      0.00228008      0.03048180     -0.00369653    -11.19539670    -44.92582422      3.15441495     11.34352174     43.52382647     -3.07848165      0.55186479      1.79206898     -0.17071378      0.04359884      6.78988149      0.64495826
H              -1.53434532      5.30663235     -1.86294369       5       1      0.00000000      0.00000000      0.00000000     -0.11004200      0.38058900     -0.13360900      0.00471829      0.01358792     -0.00122810    -36.46317802     31.09414491     29.64700886     34.17607421    -29.42417643    -28.24027050      1.45874555     -1.03932181     -1.05436907      0.03385841      6.56775419      0.62452992
H              -0.80063651      5.08851872     -3.41188539       5       1      0.00000000      0.00000000      0.00000000     -0.05742100      0.36494600     -0.24469800     -0.00967100      0.01103885     -0.01441675      2.84785202     18.24313658    -54.28874547     -2.85481390    -17.37673111     51.10529807      0.05365160     -0.65584517      2.04294495      0.04002640      6.46625575      0.61399188
H               0.15178644      5.07457551     -1.91881429       5       1      0.00000000      0.00000000      0.00000000      0.01088600      0.36394600     -0.13761600      0.01325782      0.00482808      0.01025130     50.30312276     18.40155326     22.38348063    -48.29974243    -18.33001480    -21.55682486     -1.66744565     -0.60210663     -0.87703848      0.04262880      6.24819385      0.59405135
C              -5.54482018     -3.02385001      5.87090302       6       6      0.00000000      0.00000000      0.00000000     -0.39767000     -0.21686900      0.42105700     -0.00955563     -0.01715564      0.00589342     26.67882069     -5.76114323      8.17782696    -26.55467009      6.00954277     -7.67196115     -1.07998371     -0.92225520      0.31631771     -0.15825979     28.79970783      0.74028813
H              -5.84553468     -3.83481499      6.59973064       6       1      0.00000000      0.00000000      0.00000000     -0.41923700     -0.27503100      0.47332800     -0.01250587     -0.00731094      0.00094310     -5.41844214    -34.48053873     31.46080567      5.33148839     33.90576774    -30.87683866      0.48463721      1.27328749     -1.14491749      0.03767072      6.54377868      0.62197349
H              -6.28434334     -3.04910116      5.06806462       6       1      0.00000000      0.00000000      0.00000000     -0.45070800     -0.21868000      0.36347800     -0.01040982      0.00082584     -0.00573988    -30.72591321     -3.76995338    -41.48239549     29.00621508      4.01361296     40.02693161      1.31964866      0.07372109      1.46224691      0.03696980      6.34991292      0.60297733
H              -4.62828721     -3.30105497      5.37123271       6       1      0.00000000      0.00000000      0.00000000     -0.33193700     -0.23675000      0.38522100      0.00644553      0.01226341     -0.00027598     52.91505116    -18.62234464    -26.30327326    -50.44226773     18.19547218     25.51203457     -1.71215180      0.54924935      0.98360086      0.04028814      6.26777471      0.59529262
H              -5.53345642     -2.04598481      6.40034216       6       1      0.00000000      0.00000000      0.00000000     -0.39685500     -0.14673700      0.45902800      0.00380158     -0.00004326      0.00040092      6.69704666     43.02515856     29.22687900     -6.51163416    -41.85001047    -28.77234887     -0.00818606     -1.65133529     -0.91367982      0.04304165      6.48126330      0.61610575
C              -6.50124484     -6.13562590     -5.05953135       7       6      0.00000000      0.00000000      0.00000000     -0.46626400     -0.44004400     -0.36286600     -0.04885054      0.06620762      0.00443876     10.29978743     21.67667288      8.20582255    -10.41972554    -22.20595905     -7.64296770     -0.66405943      0.30755685      0.37043993     -0.16159544     28.80130399      0.74032391
H              -5.70169591     -6.29112058     -5.74011533       7       1      0.00000000      0.00000000      0.00000000     -0.40892100     -0.45119600     -0.41167700      0.01752903     -0.00082806      0.00066611     48.33204047     -5.06313641    -40.02170936    -45.73527937      4.64779632     37.90376929     -1.61132189      0.32268914      1.38514919      0.03803111      6.42398662      0.61028116
H               7.08415719     -5.12449220     -5.11913875       7       1      0.00000000      0.00000000      0.00000000      0.50807000     -0.36752600     -0.36714100     -0.00680480      0.02319038     -0.01281441    -14.66217692     56.32392496      2.06932031     13.89352876    -53.52204585     -2.28911685      0.70827324     -1.94076612      0.09772984      0.03506727      6.45971310      0.61380784
H              -6.15550752     -6.30849382     -4.01901632       7       1      0.00000000      0.00000000      0.00000000     -0.44146800     -0.45244200     -0.28824100     -0.05004065      0.05122558     -0.08095039     15.28337858      4.53976805     49.86689230    -15.04727032     -4.98715861    -48.62883979     -0.60101101      0.27670028     -1.76837573      0.04250439      6.55014406      0.62286119
H               6.59483207      7.18158974     -5.37176255       7       1      0.00000000      0.00000000      0.00000000      0.47297600      0.51506000     -0.38525900      0.01220052     -0.00400974      0.00851987    -39.06829643    -23.00297906    -13.30927815     37.71355961     21.67069985     13.10768946      1.50448953      1.09167434      0.57334161      0.04045400      6.68201931      0.63489917
C              -6.95307651      4.69550146      0.95845901       8       6      0.00000000      0.00000000      0.00000000     -0.49866900      0.33675900      0.06874000      0.03033937     -0.00651527     -0.00136490     31.11625328     19.91354197     16.87161879    -31.24693425    -20.03280037    -17.08086776      0.69793096      0.42233750     -0.67089301     -0.15956161     28.74406871      0.73885664
H              -6.73271707      5.13787768      1.90888670       8       1      0.00000000      0.00000000      0.00000000     -0.48286500      0.36848600      0.13690400     -0.00461765      0.00742833      0.00586224     21.93563410     27.62428448     55.76623193    -21.17434574    -26.71015703    -53.00794391     -0.41533743     -0.89049605     -1.84321577      0.04008110      6.21943888      0.59141162
H              -6.96662937      5.54864465      0.25935839       8       1      0.00000000      0.00000000      0.00000000     -0.49964100      0.39794600      0.01860100     -0.00181157      0.00876484      0.01077599      4.06507541     48.56211612    -30.92477892     -4.56864896    -47.36582615     29.62942205     -0.01662873     -1.49560902      1.20275731      0.04322816      6.37400555      0.60727499
H               6.07918206      4.11712316      1.02309991       8       1      0.00000000      0.00000000      0.00000000      0.43599400      0.29527800      0.07337600      0.04184614     -0.01613315      0.00921199    -37.68316086    -24.66274863      5.76137563     35.46589777     23.57786753     -5.81232454      1.70699462      1.12380582     -0.13402816      0.04191288      6.70900579      0.63879944
H              -6.15633017      4.03418895      0.60519282       8       1      0.00000000      0.00000000      0.00000000     -0.44152700      0.28933000      0.04340400      0.01328509     -0.00692896      0.00161740     47.92870418    -29.41076245     -9.94459362    -46.30424851     28.14719003      9.55446918     -1.42626130      1.18352383      0.65888051      0.04087266      6.44925047      0.61255062
C               3.19974343      5.72312998      1.18224817       9       6      0.00000000      0.00000000      0.00000000      0.22948300      0.41046000      0.08479000      0.00491163     -0.00329259      0.02276854     -8.40035849     14.40145623    -24.71667412      8.51293890    -14.26178756     24.97993949      0.42244087      1.05513058      1.87305886     -0.16011154     28.83970521      0.74132660
H               4.10973700      5.13680405      1.17930614       9       1      0.00000000      0.00000000      0.00000000      0.29474700      0.36840900      0.08457900     -0.04408675      0.03403099     -0.01442243     41.58524823    -24.04944719     -4.16927653    -39.51969965     22.75896397      3.97317505     -1.70791820      1.09845941     -0.01637469      0.03545271      6.70386065      0.63762439
H               2.68795570      5.50797230      2.15699289       9       1      0.00000000      0.00000000      0.00000000      0.19277800      0.39502900      0.15469800     -0.00972220      0.00717681      0.00269277    -23.53261980     -7.43817323     39.22571419     22.76931855      7.16214569    -38.42912766      0.81444738      0.34119064     -1.59555329      0.03912260      6.65736311      0.63249196
H               2.60081027      5.52315646      0.33679920       9       1      0.00000000      0.00000000      0.00000000      0.18652800      0.39611800      0.02415500     -0.00407137     -0.00628812     -0.01130150    -34.99968122     -7.37402226    -54.07959207     32.87340272      6.58740369     51.30545913      1.23500153      0.40637114      1.77338701      0.03977847      6.27332279      0.59618523
H               3.46795617      6.81026812      1.20582620       9       1      0.00000000      0.00000000      0.00000000      0.24871900      0.48842900      0.08648100     -0.00128154      0.00864543      0.00491603     12.97831438     51.04297197     -6.75736968    -12.64889781    -49.91125424      6.68890186     -0.43430446     -1.77948452     -0.05100717      0.03997013      6.54444077      0.62196715
C              -1.40444981     -5.84499363     -5.54638781      10       6      0.00000000      0.00000000      0.00000000     -0.10072600     -0.41920000     -0.39778300      0.00339693     -0.00290759     -0.01175785    -21.00832252     22.95071290      2.05627250     20.73599405    -22.40394829     -1.96906659      0.15544296      0.42831196      0.23149496     -0.16073113     28.58635780      0.73482818
H              -2.47830470     -5.67372918     -5.72898862      10       1      0.00000000      0.00000000      0.00000000     -0.17774200     -0.40691700     -0.41087900     -0.00892194      0.00731549      0.00130131    -54.73434793     13.44532511    -10.10397952     53.07429147    -13.13227830     10.15393370      1.87492318     -0.29577050      0.35026539      0.04328111      6.25957568      0.59519097
H              -1.16196241     -6.24849619     -4.56882656      10       1      0.00000000      0.00000000      0.00000000     -0.08333500     -0.44813900     -0.32767300      0.00371035     -0.00225548      0.00955059     10.34318477    -15.58408080     50.18749558    -10.24462702     14.78166813    -47.85766600     -0.48250794      0.75383540     -1.80258462      0.03955988      6.40954248      0.60909275
H              -0.83552257     -4.89999257     -5.64585896      10       1      0.00000000      0.00000000      0.00000000     -0.05992300     -0.35142500     -0.40491700     -0.00456506     -0.00014893      0.01223493     21.17974100     48.32801494     -5.24633873    -20.44305224    -47.02173542      4.89096240     -0.97877720     -1.61804611      0.14663225      0.04084567      6.45101122      0.61315308
H              -1.07517949     -6.57910364     -6.23950677      10       1      0.00000000      0.00000000      0.00000000     -0.07711100     -0.47185000     -0.44749300     -0.00521328      0.00118233     -0.00446354     12.25094779    -34.57728588    -36.04801762    -11.07830761     32.44595706     33.63283187     -0.65429259      1.50215738      1.38463685      0.03544517      6.52942736      0.62064290
C               3.18864459      1.96323185      4.76159199      11       6      0.00000000      0.00000000      0.00000000      0.22868700      0.14080200      0.34149800      0.04099977      0.02804565      0.03905128     -6.52943154      5.10164276     28.10695303      6.02093611     -5.65272743    -28.20649196      0.13359701      1.76097728     -1.38048537     -0.15371061     29.23086449      0.75138546
H               3.57463613      2.92899435      4.34726831      11       1      0.00000000      0.00000000      0.00000000      0.25637000      0.21006600      0.31178300      0.00940990      0.01562943     -0.00737818     20.09771689     48.36079635    -14.00268923    -19.78510921    -47.08698769     13.65026887     -0.63857450     -1.56092528      0.68782823      0.03559228      6.51452891      0.61859291
H               3.60617581      1.22297289      4.05186662      11       1      0.00000000      0.00000000      0.00000000      0.25863200      0.08771100      0.29059700      0.01364007      0.04511258      0.02966010     21.91571160    -32.16788791    -25.33085295    -21.70077784     30.82456748     24.55978800     -0.75043828      1.23575745      1.23633899      0.04108097      6.93856581      0.65923943
H               2.06264187      2.04067244      4.79235080      11       1      0.00000000      0.00000000      0.00000000      0.14793100      0.14635600      0.34370400      0.02890949     -0.00740443      0.02101880    -51.45636371      3.76383399     10.96108923     50.74342628     -4.02980090    -11.00745801      1.79192503     -0.14355561     -0.05373410      0.04426938      6.72463860      0.64004200
H               3.60751436      1.86417929      5.73911142      11       1      0.00000000      0.00000000      0.00000000      0.25872800      0.13369800      0.41160500      0.00017653      0.00958325      0.01283497     18.92806018     -4.64690897     56.42190531    -17.83872467      4.15510349    -53.60624114     -0.83693440      0.17673327     -1.94102497      0.03789969      6.51777528      0.61924066
C               5.32663589      4.52466925     -5.70832472      12       6      0.00000000      0.00000000      0.00000000      0.38202200      0.32450700     -0.40939700     -0.05307502      0.02846021     -0.00084232      0.41419899     23.62179731    -12.52080928      0.36534286    -22.95230751     12.35155298     -2.19255071     -1.43517169     -1.71535663     -0.15846051     29.05164067      0.74678332
H               4.44305087      5.08758452     -6.09982329      12       1      0.00000000      0.00000000      0.00000000      0.31865200      0.36487900     -0.43747500     -0.00792699      0.01254350     -0.01822241    -44.90755211     29.16071869    -15.10476888     44.28115028    -28.08635484     14.45076447      1.47673017     -0.88804914      0.62791075      0.03865159      6.38510711      0.60619307
H               4.92233684      3.50671731     -5.73683867      12       1      0.00000000      0.00000000      0.00000000      0.35302600      0.25150000     -0.41144200      0.00324794      0.03894864      0.00194994    -24.83515228    -43.99781643     -2.59043041     24.31323628     41.84415714      2.49739196      0.73401929      1.78873429      0.05111168      0.03301450      6.73893536      0.64060141
H               5.42131070      4.73659210     -4.67896429      12       1      0.00000000      0.00000000      0.00000000      0.38881200      0.33970600     -0.33557200      0.00908392     -0.00305685     -0.03980903     -0.77476883     18.68476108     54.04679100      1.70070131    -17.65077087    -50.69302067     -0.14825289     -0.41079940     -2.15767987      0.04137351      6.63111189      0.63054720
H               6.21832195      4.54152659     -6.37733580      12       1      0.00000000      0.00000000      0.00000000      0.44597300      0.32571600     -0.45737800      0.00059096     -0.00585894     -0.00252112     46.51296402      2.52393693    -36.36581852    -45.50343965     -2.13420681     35.91409136     -1.48282275      0.00205960      1.14883208      0.04972930      6.40906903      0.60913270
C               0.40390865     -2.88036044     -3.33218577      13       6      0.00000000      0.00000000      0.00000000      0.02896800     -0.20657800     -0.23898200     -0.02002533     -0.01187665      0.01205043    -23.21365651      1.08741294     -0.47608144     22.89590888     -0.88697796      0.16137025     -0.01474257     -0.62272064     -1.41427934     -0.15958122     28.56596624      0.73429439
H               0.92192901     -3.21234827     -4.26207506      13       1      0.00000000      0.00000000      0.00000000      0.06612000     -0.23038800     -0.30567300      0.00046175      0.00264657      0.01001916     19.93739396    -14.95046624    -41.95741920    -19.12079445     14.47262056     40.98193557     -0.85039573      0.54182346      1.55137712      0.03833260      6.47380127      0.61632255
H              -0.01956241     -3.74658236     -2.84725348      13       1      0.00000000      0.00000000      0.00000000     -0.00140300     -0.26870300     -0.20420300     -0.00986916     -0.00583009      0.00333005    -25.91270885    -43.45034275     27.12776020     24.47674401     41.37552821    -26.19305611      0.77076734      1.64581957     -0.93322333      0.04028613      6.31531451      0.60137010
H               1.09659636     -2.50177440     -2.63011525      13       1      0.00000000      0.00000000      0.00000000      0.07864700     -0.17942600     -0.18863000      0.02086519     -0.01034230     -0.00591427     34.71377731     18.04647371     38.70177715    -32.28706512    -16.38241618    -36.56562418     -1.42978612     -0.74176040     -1.46965467      0.04020256      6.38245676      0.60570958
H              -0.34004847     -2.14148185     -3.67315401      13       1      0.00000000      0.00000000      0.00000000     -0.02438800     -0.15358600     -0.26343600     -0.00338283     -0.00362256     -0.00342538    -43.99076834     35.22986545    -18.16179297     42.72511284    -34.10545217     18.02928704      1.29014614     -1.28878078      0.63369086      0.04415823      6.28539707      0.59648149
C              -3.22065833     -0.06574224      4.72253695      14       6      0.00000000      0.00000000      0.00000000     -0.23098300     -0.00471500      0.33869700     -0.00121100      0.01062868     -0.00170307     13.56518329     -4.74582228      4.75893226    -13.42486127      4.42366909     -4.80565429      0.13164848      1.65911814      0.16964321     -0.15986442     28.66866962      0.73691951
H              -2.73000861     -0.63313328      3.92728368      14       1      0.00000000      0.00000000      0.00000000     -0.19579400     -0.04540800      0.28166200      0.00822631     -0.00106701     -0.00780809     23.56115255    -31.28234198    -40.92108928    -22.43820774     30.06198318     39.77636095     -0.86743073      1.00252787      1.46811677      0.04360882      6.26567810      0.59575223
H              -4.28319128     -0.25585790      4.69787134      14       1      0.00000000      0.00000000      0.00000000     -0.30718700     -0.01835000      0.33692800      0.01420250      0.00499658      0.00452983    -46.80592629     -8.54670074     -0.41119636     44.24076403      8.09113121      0.32315989      2.01884723      0.36186819      0.03901275      0.03724148      6.61811644      0.62935531
H              -2.86739165     -0.20635951      5.75396098      14       1      0.00000000      0.00000000      0.00000000     -0.20564700     -0.01480000      0.41267000     -0.00651726     -0.00675808      0.00218683     19.38291760     -7.87573322     55.29570744    -18.55174986      7.15420364    -53.74686208     -0.60146509      0.20384449     -1.83536233      0.04120473      6.22515965      0.59108675
H              -3.05317178      1.02122859      4.52855845      14       1      0.00000000      0.00000000      0.00000000     -0.21897100      0.07324200      0.32478500      0.01220693      0.00802142     -0.00772933      6.93756512     52.12931451     -8.10618053     -6.83300225    -50.83319139      7.68179320     -0.28664444     -1.78839734      0.30310155      0.03643867      6.30388354      0.59966593